# Force and moment coefficients
# dragDir       : (1.00000000e+00 0.00000000e+00 0.00000000e+00)
# sideDir       : (0.00000000e+00 0.00000000e+00 -1.00000000e+00)
# liftDir       : (0.00000000e+00 1.00000000e+00 0.00000000e+00)
# rollAxis      : (1.00000000e+00 0.00000000e+00 0.00000000e+00)
# pitchAxis     : (0.00000000e+00 0.00000000e+00 -1.00000000e+00)
# yawAxis       : (0.00000000e+00 1.00000000e+00 0.00000000e+00)
# magUInf       : 2.36600000e+02
# lRef          : 1.03300000e-01
# Aref          : 6.78000000e-03
# CofR          : (3.50000000e-02 0.00000000e+00 0.00000000e+00)
#
# Time          	Cd              	Cd(f)           	Cd(r)           	Cl              	Cl(f)           	Cl(r)           	CmPitch         	CmRoll          	CmYaw           	Cs              	Cs(f)           	Cs(r)           
1               	8.71721726e-02	4.65716939e-02	4.06004787e-02	-1.63258864e-03	-1.26262535e-03	-3.69963284e-04	-4.46331035e-04	2.98560756e-03	4.85370415e-03	1.73394744e-01	9.15510760e-02	8.18436677e-02
2               	1.66183632e-01	8.60540980e-02	8.01295345e-02	-1.79870224e-03	-2.10561287e-03	3.06910629e-04	-1.20626175e-03	2.96228173e-03	2.44046932e-02	1.70693371e-01	1.09751379e-01	6.09419921e-02
3               	1.68277482e-01	8.69421759e-02	8.13353059e-02	-1.23034332e-03	-2.06618746e-03	8.35844141e-04	-1.45101580e-03	2.80343497e-03	2.36412669e-02	1.73373449e-01	1.10327991e-01	6.30454573e-02
4               	1.16660359e-01	6.08562032e-02	5.58041554e-02	-1.19126395e-04	-1.38620896e-03	1.26708257e-03	-1.32664576e-03	2.52602392e-03	8.81612198e-03	1.79172944e-01	9.84025939e-02	8.07703500e-02
5               	4.46346497e-02	2.46174373e-02	2.00172123e-02	8.99451714e-04	-6.04820849e-04	1.50427256e-03	-1.05454671e-03	2.30011248e-03	-1.09586745e-02	1.85083616e-01	8.15831335e-02	1.03500482e-01
6               	-1.62400860e-02	-5.91635772e-03	-1.03237283e-02	1.43367692e-03	-2.32272705e-05	1.45690419e-03	-7.40065730e-04	2.20368527e-03	-2.71093572e-02	1.88576248e-01	6.71787667e-02	1.21397481e-01
7               	-4.73066322e-02	-2.14303099e-02	-2.58763223e-02	1.44342933e-03	2.78534408e-04	1.16489492e-03	-4.43180255e-04	2.22300620e-03	-3.46739388e-02	1.88501620e-01	5.95768712e-02	1.28924749e-01
8               	-4.57612558e-02	-2.06300372e-02	-2.51312186e-02	1.18565119e-03	3.97629388e-04	7.88021805e-04	-1.95196208e-04	2.25059070e-03	-3.31210950e-02	1.85274174e-01	5.95159921e-02	1.25758182e-01
9               	-2.09736354e-02	-8.24288564e-03	-1.27307498e-02	8.67508134e-04	4.36640624e-04	4.30867510e-04	2.88655724e-06	2.24393207e-03	-2.52808448e-02	1.80379509e-01	6.49089095e-02	1.15470599e-01
10              	1.17750167e-02	8.12021530e-03	3.65480138e-03	5.46044796e-04	3.67463683e-04	1.78581112e-04	9.44412857e-05	2.23270696e-03	-1.55899432e-02	1.75760269e-01	7.22901913e-02	1.03470078e-01
11              	3.83747750e-02	2.14652633e-02	1.69095117e-02	2.05680718e-04	1.74244562e-04	3.14361564e-05	7.14042028e-05	2.27787578e-03	-8.08163702e-03	1.73088114e-01	7.84624202e-02	9.46256943e-02
12              	5.06325315e-02	2.76971818e-02	2.29353497e-02	-7.23645281e-05	-5.93944845e-05	-1.29700436e-05	-2.32122204e-05	2.38091602e-03	-5.00491991e-03	1.73045315e-01	8.15177377e-02	9.15275775e-02
13              	4.79421194e-02	2.65371596e-02	2.14049598e-02	-3.96735824e-04	-3.57398670e-04	-3.93371542e-05	-1.59030758e-04	2.56609992e-03	-6.36041372e-03	1.75189217e-01	8.12341947e-02	9.39550221e-02
14              	3.54247332e-02	2.04984473e-02	1.49262858e-02	-7.35451252e-04	-6.65681212e-04	-6.97700399e-05	-2.97955586e-04	2.78608076e-03	-1.04929420e-02	1.78360119e-01	7.86871177e-02	9.96730016e-02
15              	2.04885873e-02	1.32023502e-02	7.28623712e-03	-9.85402799e-04	-8.85602026e-04	-9.98007726e-05	-3.92900627e-04	2.95805652e-03	-1.51288462e-02	1.81211243e-01	7.54767753e-02	1.05734468e-01
16              	9.29054887e-03	7.66443967e-03	1.62610920e-03	-1.05119989e-03	-9.34900198e-04	-1.16299693e-04	-4.09300252e-04	3.01916524e-03	-1.84320216e-02	1.82786990e-01	7.29614735e-02	1.09825517e-01
17              	4.91138433e-03	5.40904505e-03	-4.97660718e-04	-9.02734397e-04	-8.06163848e-04	-9.65705486e-05	-3.54796650e-04	2.95335288e-03	-1.95439154e-02	1.82807646e-01	7.18599075e-02	1.10947738e-01
18              	7.06359958e-03	6.33660896e-03	7.26990627e-04	-6.31027911e-04	-5.83105045e-04	-4.79228665e-05	-2.67591089e-04	2.80480917e-03	-1.86371460e-02	1.81606097e-01	7.21659024e-02	1.09440194e-01
19              	1.31273616e-02	9.18450661e-03	3.94285500e-03	-2.95577598e-04	-3.14279072e-04	1.87014739e-05	-1.66490273e-04	2.62082581e-03	-1.65830821e-02	1.79862474e-01	7.33481550e-02	1.06514319e-01
20              	1.97674902e-02	1.23529289e-02	7.41456131e-03	-1.14778721e-05	-9.34643779e-05	8.19865058e-05	-8.77254419e-05	2.46918378e-03	-1.44406078e-02	1.78292913e-01	7.47058485e-02	1.03587064e-01
21              	2.43216335e-02	1.45525422e-02	9.76909129e-03	1.40253998e-04	2.21495600e-05	1.18104438e-04	-4.79774388e-05	2.39172545e-03	-1.30300548e-02	1.77412570e-01	7.56762304e-02	1.01736340e-01
22              	2.56340749e-02	1.52419054e-02	1.03921694e-02	6.56882327e-05	-2.30632712e-05	8.87515039e-05	-5.59073876e-05	2.42486800e-03	-1.26852599e-02	1.77374207e-01	7.60018436e-02	1.01372363e-01
23              	2.40925289e-02	1.45986631e-02	9.49386588e-03	-2.17164026e-04	-2.03222395e-04	-1.39416310e-05	-9.46403817e-05	2.55239859e-03	-1.32534399e-02	1.77995076e-01	7.57440980e-02	1.02250978e-01
24              	2.10630345e-02	1.32551241e-02	7.80791042e-03	-6.04435580e-04	-4.45166313e-04	-1.59269267e-04	-1.42948523e-04	2.72360685e-03	-1.42801832e-02	1.78907148e-01	7.51733911e-02	1.03733757e-01
25              	1.81187708e-02	1.19317671e-02	6.18700371e-03	-9.48605605e-04	-6.50968460e-04	-2.97637145e-04	-1.76665658e-04	2.87238167e-03	-1.52549317e-02	1.79726316e-01	7.46082264e-02	1.05118090e-01
26              	1.63333669e-02	1.11246454e-02	5.20872146e-03	-1.15411331e-03	-7.66415648e-04	-3.87697662e-04	-1.89358993e-04	2.95796198e-03	-1.58356451e-02	1.80202165e-01	7.42654375e-02	1.05936728e-01
27              	1.60531322e-02	1.09966661e-02	5.05646612e-03	-1.19934502e-03	-7.86359511e-04	-4.12985513e-04	-1.86686999e-04	2.97009999e-03	-1.59169206e-02	1.80261749e-01	7.42139537e-02	1.06047795e-01
28              	1.69791512e-02	1.14097760e-02	5.56937523e-03	-1.10857992e-03	-7.28445644e-04	-3.80134274e-04	-1.74155685e-04	2.92020037e-03	-1.56004761e-02	1.79987431e-01	7.43932393e-02	1.05594191e-01
29              	1.84322001e-02	1.20490889e-02	6.38311121e-03	-9.29177444e-04	-6.22144096e-04	-3.07033348e-04	-1.57555374e-04	2.83298882e-03	-1.51099614e-02	1.79555347e-01	7.46677123e-02	1.04887635e-01
30              	1.97177283e-02	1.26025462e-02	7.11518216e-03	-7.35854756e-04	-5.09443066e-04	-2.26411691e-04	-1.41515688e-04	2.74368201e-03	-1.46745190e-02	1.79149029e-01	7.48999953e-02	1.04249033e-01
31              	2.03874526e-02	1.28753559e-02	7.51209672e-03	-6.00222027e-04	-4.25607345e-04	-1.74614681e-04	-1.25496332e-04	2.68162960e-03	-1.44423714e-02	1.78896310e-01	7.50057835e-02	1.03890526e-01
32              	2.03381804e-02	1.28343281e-02	7.50385227e-03	-5.65260927e-04	-3.92429070e-04	-1.72831858e-04	-1.09798606e-04	2.66523791e-03	-1.44493500e-02	1.78843538e-01	7.49724193e-02	1.03871119e-01
33              	1.97827501e-02	1.25816365e-02	7.20111366e-03	-6.22824854e-04	-4.07198351e-04	-2.15626503e-04	-9.57859237e-05	2.69026140e-03	-1.46281084e-02	1.78954447e-01	7.48491151e-02	1.04105332e-01
34              	1.90600940e-02	1.22725175e-02	6.78757652e-03	-7.49600313e-04	-4.59933549e-04	-2.89666764e-04	-8.51333926e-05	2.74247050e-03	-1.48689901e-02	1.79152254e-01	7.47071369e-02	1.04445117e-01
35              	1.84912190e-02	1.20458779e-02	6.44534117e-03	-8.98804678e-04	-5.27532792e-04	-3.71271885e-04	-7.81304537e-05	2.80026835e-03	-1.50657972e-02	1.79351000e-01	7.46097026e-02	1.04741297e-01
36              	1.82450746e-02	1.19687220e-02	6.27635258e-03	-1.02772273e-03	-5.89901546e-04	-4.37821185e-04	-7.60401802e-05	2.84618470e-03	-1.51603890e-02	1.79489860e-01	7.45845412e-02	1.04905319e-01
37              	1.83234651e-02	1.20332861e-02	6.29017902e-03	-1.10436362e-03	-6.29493928e-04	-4.74869693e-04	-7.73121178e-05	2.87155352e-03	-1.51478198e-02	1.79543551e-01	7.46239555e-02	1.04919595e-01
38              	1.86060589e-02	1.21775407e-02	6.42851826e-03	-1.12119009e-03	-6.40387652e-04	-4.80802436e-04	-7.97926079e-05	2.87451120e-03	-1.50632752e-02	1.79519494e-01	7.46964718e-02	1.04823022e-01
39              	1.89288727e-02	1.23268136e-02	6.60205913e-03	-1.09757909e-03	-6.30136815e-04	-4.67442275e-04	-8.13472697e-05	2.86237722e-03	-1.49587359e-02	1.79446965e-01	7.47647468e-02	1.04682219e-01
40              	1.91605575e-02	1.24187110e-02	6.74184649e-03	-1.04556953e-03	-6.02976342e-04	-4.42593188e-04	-8.01915767e-05	2.83843226e-03	-1.48780939e-02	1.79359776e-01	7.48017942e-02	1.04557982e-01
41              	1.92377007e-02	1.24340795e-02	6.80362113e-03	-1.00188708e-03	-5.73816710e-04	-4.28070373e-04	-7.28731684e-05	2.81522921e-03	-1.48446414e-02	1.79286964e-01	7.47988408e-02	1.04488124e-01
42              	1.91745853e-02	1.23906793e-02	6.78390598e-03	-9.92024054e-04	-5.55461193e-04	-4.36562861e-04	-5.94491664e-05	2.80338668e-03	-1.48571771e-02	1.79244859e-01	7.47652526e-02	1.04479607e-01
43              	1.90265776e-02	1.23216509e-02	6.70492672e-03	-1.02846350e-03	-5.55532111e-04	-4.72931386e-04	-4.13003625e-05	2.80836209e-03	-1.49009078e-02	1.79239722e-01	7.47189534e-02	1.04520769e-01
44              	1.88718945e-02	1.22653489e-02	6.60654556e-03	-1.10596900e-03	-5.74603429e-04	-5.31365573e-04	-2.16189280e-05	2.82940167e-03	-1.49518571e-02	1.79264049e-01	7.46801673e-02	1.04583881e-01
45              	1.87715945e-02	1.22453881e-02	6.52620642e-03	-1.20497373e-03	-6.07164634e-04	-5.97809099e-04	-4.67776778e-06	2.85959082e-03	-1.49896419e-02	1.79303847e-01	7.46622816e-02	1.04641565e-01
46              	1.87572184e-02	1.22669277e-02	6.49029073e-03	-1.29563067e-03	-6.42752102e-04	-6.52878567e-04	5.06323255e-06	2.88831848e-03	-1.50019237e-02	1.79342565e-01	7.46693587e-02	1.04673206e-01
47              	1.88161101e-02	1.23154418e-02	6.50066839e-03	-1.35720170e-03	-6.71646874e-04	-6.85554830e-04	6.95397790e-06	2.90738668e-03	-1.49900671e-02	1.79368635e-01	7.46942505e-02	1.04674385e-01
48              	1.89067998e-02	1.23671884e-02	6.53961148e-03	-1.38295208e-03	-6.87881551e-04	-6.95070533e-04	3.59449118e-06	2.91378845e-03	-1.49652545e-02	1.79377656e-01	7.47235733e-02	1.04654082e-01
49              	1.89908060e-02	1.24029931e-02	6.58781296e-03	-1.37483383e-03	-6.88778321e-04	-6.86055512e-04	-1.36140465e-06	2.90759006e-03	-1.49390316e-02	1.79370038e-01	7.47459874e-02	1.04624051e-01
50              	1.90429761e-02	1.24153632e-02	6.62761288e-03	-1.34870074e-03	-6.77322900e-04	-6.71377836e-04	-2.97253176e-06	2.89387516e-03	-1.49200160e-02	1.79350174e-01	7.47550711e-02	1.04595103e-01
51              	1.90580465e-02	1.24095738e-02	6.64847274e-03	-1.32734017e-03	-6.61547620e-04	-6.65792553e-04	2.12246637e-06	2.88055051e-03	-1.49113391e-02	1.79324274e-01	7.47507979e-02	1.04573476e-01
52              	1.90470119e-02	1.23991327e-02	6.64787928e-03	-1.33062653e-03	-6.50757462e-04	-6.79869065e-04	1.45558011e-05	2.87562669e-03	-1.49112011e-02	1.79299035e-01	7.47383164e-02	1.04560719e-01
53              	1.90288561e-02	1.23965700e-02	6.63228607e-03	-1.36636496e-03	-6.51166900e-04	-7.15198057e-04	3.20155782e-05	2.88214199e-03	-1.49148336e-02	1.79279704e-01	7.47250182e-02	1.04554685e-01
54              	1.90212389e-02	1.24088469e-02	6.61239203e-03	-1.42920389e-03	-6.63780289e-04	-7.65423599e-04	5.08216554e-05	2.89822742e-03	-1.49170982e-02	1.79268995e-01	7.47173993e-02	1.04551596e-01
55              	1.90339356e-02	1.24361061e-02	6.59782948e-03	-1.50542256e-03	-6.85172867e-04	-8.20249690e-04	6.75384117e-05	2.91913832e-03	-1.49145570e-02	1.79266649e-01	7.47187678e-02	1.04547882e-01
56              	1.90670698e-02	1.24720419e-02	6.59502791e-03	-1.57753254e-03	-7.08808525e-04	-8.68724011e-04	7.99577430e-05	2.93850699e-03	-1.49063605e-02	1.79270005e-01	7.47286422e-02	1.04541363e-01
57              	1.91121024e-02	1.25071752e-02	6.60492724e-03	-1.63187888e-03	-7.28269505e-04	-9.03609371e-04	8.76699330e-05	2.95112397e-03	-1.48943642e-02	1.79275176e-01	7.47432239e-02	1.04531952e-01
58              	1.91581307e-02	1.25346865e-02	6.62344417e-03	-1.66528978e-03	-7.40524116e-04	-9.24765667e-04	9.21207760e-05	2.95562119e-03	-1.48813988e-02	1.79278193e-01	7.47576978e-02	1.04520495e-01
59              	1.91964586e-02	1.25512858e-02	6.64517285e-03	-1.68172735e-03	-7.44848007e-04	-9.36879342e-04	9.60156674e-05	2.95305647e-03	-1.48699889e-02	1.79276181e-01	7.47681018e-02	1.04508079e-01
60              	1.92239619e-02	1.25590785e-02	6.66488341e-03	-1.69132424e-03	-7.43571261e-04	-9.47752980e-04	1.02090860e-04	2.94709753e-03	-1.48612569e-02	1.79268040e-01	7.47727632e-02	1.04495277e-01
61              	1.92429231e-02	1.25639184e-02	6.67900468e-03	-1.70667244e-03	-7.41270141e-04	-9.65402295e-04	1.12066077e-04	2.94245686e-03	-1.48548045e-02	1.79254550e-01	7.47724704e-02	1.04482079e-01
62              	1.92588186e-02	1.25722511e-02	6.68656751e-03	-1.73672524e-03	-7.42273545e-04	-9.94451695e-04	1.26089075e-04	2.94284178e-03	-1.48493096e-02	1.79238001e-01	7.47696910e-02	1.04468310e-01
63              	1.92772186e-02	1.25879817e-02	6.68923690e-03	-1.78322511e-03	-7.48753478e-04	-1.03447163e-03	1.42859078e-04	2.94937240e-03	-1.48433334e-02	1.79221535e-01	7.47674343e-02	1.04454101e-01
64              	1.93019097e-02	1.26117649e-02	6.69014480e-03	-1.84164715e-03	-7.60468924e-04	-1.08117823e-03	1.60354651e-04	2.96081006e-03	-1.48357862e-02	1.79207790e-01	7.47681086e-02	1.04439681e-01
65              	1.93331664e-02	1.26406562e-02	6.69251018e-03	-1.90364438e-03	-7.75331217e-04	-1.12831316e-03	1.76490971e-04	2.97407302e-03	-1.48265642e-02	1.79198339e-01	7.47726051e-02	1.04425733e-01
66              	1.93686988e-02	1.26700876e-02	6.69861128e-03	-1.96101929e-03	-7.90502445e-04	-1.17051684e-03	1.90007199e-04	2.98573814e-03	-1.48162672e-02	1.79193025e-01	7.47802453e-02	1.04412780e-01
67              	1.94043648e-02	1.26953731e-02	6.70899163e-03	-2.00859479e-03	-8.03474694e-04	-1.20512009e-03	2.00822700e-04	2.99319075e-03	-1.48060985e-02	1.79190513e-01	7.47891582e-02	1.04401355e-01
68              	1.94365368e-02	1.27138532e-02	6.72268357e-03	-2.04604138e-03	-8.13031369e-04	-1.23301001e-03	2.09989323e-04	2.99558482e-03	-1.47971361e-02	1.79188771e-01	7.47972494e-02	1.04391522e-01
69              	1.94633424e-02	1.27253114e-02	6.73803098e-03	-2.07657123e-03	-8.19174442e-04	-1.25739679e-03	2.19111173e-04	2.99364023e-03	-1.47899470e-02	1.79185813e-01	7.48029597e-02	1.04382854e-01
70              	1.94848958e-02	1.27316344e-02	6.75326141e-03	-2.10537822e-03	-8.23044604e-04	-1.28233361e-03	2.29644504e-04	2.98918650e-03	-1.47845029e-02	1.79180500e-01	7.48057472e-02	1.04374753e-01
71              	1.95027576e-02	1.27358084e-02	6.76694916e-03	-2.13765432e-03	-8.26612478e-04	-1.31104184e-03	2.42214681e-04	2.98442964e-03	-1.47803685e-02	1.79172806e-01	7.48060347e-02	1.04366772e-01
72              	1.95190899e-02	1.27405424e-02	6.77854747e-03	-2.17626932e-03	-8.31529239e-04	-1.34474008e-03	2.56605418e-04	2.98099746e-03	-1.47769162e-02	1.79163616e-01	7.48048919e-02	1.04358724e-01
73              	1.95351851e-02	1.27472145e-02	6.78797058e-03	-2.22098645e-03	-8.38466634e-04	-1.38251982e-03	2.72026592e-04	2.97962195e-03	-1.47737738e-02	1.79154594e-01	7.48035232e-02	1.04351071e-01
74              	1.95519951e-02	1.27559933e-02	6.79600181e-03	-2.26937211e-03	-8.47199325e-04	-1.42217279e-03	2.87486731e-04	2.97999576e-03	-1.47706500e-02	1.79147128e-01	7.48029143e-02	1.04344214e-01
75              	1.95684059e-02	1.27649558e-02	6.80345003e-03	-2.31694484e-03	-8.56631786e-04	-1.46031306e-03	3.01840636e-04	2.98075290e-03	-1.47679339e-02	1.79142358e-01	7.48032449e-02	1.04339113e-01
76              	1.95828384e-02	1.27717627e-02	6.81107564e-03	-2.35982988e-03	-8.65508969e-04	-1.49432091e-03	3.14405969e-04	2.98034354e-03	-1.47661356e-02	1.79140518e-01	7.48041232e-02	1.04336394e-01
77              	1.95936305e-02	1.27744793e-02	6.81915113e-03	-2.39615507e-03	-8.72953575e-04	-1.52320150e-03	3.25123961e-04	2.97766411e-03	-1.47658105e-02	1.79141171e-01	7.48047749e-02	1.04336396e-01
78              	1.95995048e-02	1.27718817e-02	6.82762307e-03	-2.42585153e-03	-8.78653231e-04	-1.54719830e-03	3.34272534e-04	2.97212933e-03	-1.47673829e-02	1.79143406e-01	7.48043203e-02	1.04339086e-01
79              	1.96000148e-02	1.27640704e-02	6.83594436e-03	-2.45094236e-03	-8.82902816e-04	-1.56803955e-03	3.42568367e-04	2.96406302e-03	-1.47709934e-02	1.79146250e-01	7.48021318e-02	1.04344119e-01
80              	1.95958536e-02	1.27523323e-02	6.84352133e-03	-2.47449756e-03	-8.86359700e-04	-1.58813786e-03	3.50889080e-04	2.95440547e-03	-1.47764084e-02	1.79148948e-01	7.47980655e-02	1.04350882e-01
81              	1.95883191e-02	1.27383171e-02	6.85000202e-03	-2.49878575e-03	-8.89665038e-04	-1.60912071e-03	3.59727837e-04	2.94415755e-03	-1.47831598e-02	1.79151221e-01	7.47924509e-02	1.04358770e-01
82              	1.95787074e-02	1.27232461e-02	6.85546128e-03	-2.52431776e-03	-8.93104494e-04	-1.63121326e-03	3.69054385e-04	2.93389243e-03	-1.47907601e-02	1.79153238e-01	7.47858590e-02	1.04367379e-01
83              	1.95675884e-02	1.27076497e-02	6.85993870e-03	-2.55019425e-03	-8.96574272e-04	-1.65361998e-03	3.78522853e-04	2.92385551e-03	-1.47989888e-02	1.79155673e-01	7.47788476e-02	1.04376825e-01
84              	1.95550783e-02	1.26917031e-02	6.86337520e-03	-2.57527830e-03	-8.99856642e-04	-1.67542166e-03	3.87782510e-04	2.91416395e-03	-1.48077786e-02	1.79159213e-01	7.47718278e-02	1.04387385e-01
85              	1.95406298e-02	1.26750718e-02	6.86555802e-03	-2.59828810e-03	-9.02645857e-04	-1.69564225e-03	3.96498194e-04	2.90475688e-03	-1.48172984e-02	1.79164414e-01	7.47649085e-02	1.04399505e-01
86              	1.95235854e-02	1.26572871e-02	6.86629827e-03	-2.61846929e-03	-9.04752734e-04	-1.71371656e-03	4.04481912e-04	2.89549441e-03	-1.48277492e-02	1.79171423e-01	7.47579622e-02	1.04413461e-01
87              	1.95033553e-02	1.26380882e-02	6.86526707e-03	-2.63604496e-03	-9.06201593e-04	-1.72984337e-03	4.11820888e-04	2.88641058e-03	-1.48393311e-02	1.79180082e-01	7.47507101e-02	1.04429372e-01
88              	1.94799572e-02	1.26177463e-02	6.86221096e-03	-2.65201205e-03	-9.07206099e-04	-1.74480595e-03	4.18799925e-04	2.87776765e-03	-1.48520065e-02	1.79189892e-01	7.47429395e-02	1.04446953e-01
89              	1.94538582e-02	1.25966913e-02	6.85716688e-03	-2.66722270e-03	-9.08012435e-04	-1.75921026e-03	4.25598914e-04	2.86976221e-03	-1.48655803e-02	1.79200254e-01	7.47345467e-02	1.04465707e-01
90              	1.94260316e-02	1.25755596e-02	6.85047203e-03	-2.68232852e-03	-9.08866417e-04	-1.77346210e-03	4.32297842e-04	2.86254379e-03	-1.48796961e-02	1.79210639e-01	7.47256233e-02	1.04485016e-01
91              	1.93972507e-02	1.25549498e-02	6.84230089e-03	-2.69763891e-03	-9.09909583e-04	-1.78772933e-03	4.38909873e-04	2.85632448e-03	-1.48940576e-02	1.79220810e-01	7.47163476e-02	1.04504463e-01
92              	1.93681806e-02	1.25356297e-02	6.83255095e-03	-2.71346144e-03	-9.11207437e-04	-1.80225400e-03	4.45523281e-04	2.85153936e-03	-1.49084097e-02	1.79230756e-01	7.47069682e-02	1.04523788e-01
93              	1.93394094e-02	1.25185150e-02	6.82089441e-03	-2.73038412e-03	-9.12835100e-04	-1.81754902e-03	4.52356959e-04	2.84881030e-03	-1.49225062e-02	1.79240581e-01	7.46977845e-02	1.04542797e-01
94              	1.93111599e-02	1.25042851e-02	6.80687485e-03	-2.74877865e-03	-9.14837704e-04	-1.83394095e-03	4.59551621e-04	2.84870512e-03	-1.49362279e-02	1.79250499e-01	7.46890213e-02	1.04561477e-01
95              	1.92835790e-02	1.24934446e-02	6.79013431e-03	-2.76903900e-03	-9.17331013e-04	-1.85170798e-03	4.67188485e-04	2.85165517e-03	-1.49494840e-02	1.79260630e-01	7.46808312e-02	1.04579799e-01
96              	1.92565444e-02	1.24861600e-02	6.77038440e-03	-2.79141863e-03	-9.20444595e-04	-1.87097403e-03	4.75264718e-04	2.85788781e-03	-1.49622992e-02	1.79271003e-01	7.46732024e-02	1.04597801e-01
97              	1.92299623e-02	1.24826621e-02	6.74730021e-03	-2.81662107e-03	-9.24466849e-04	-1.89215422e-03	4.83843685e-04	2.86768094e-03	-1.49747373e-02	1.79281559e-01	7.46660423e-02	1.04615517e-01
98              	1.92037124e-02	1.24831652e-02	6.72054720e-03	-2.84525407e-03	-9.29597783e-04	-1.91565629e-03	4.93029252e-04	2.88130900e-03	-1.49868536e-02	1.79292135e-01	7.46592141e-02	1.04632921e-01
99              	1.91777704e-02	1.24879054e-02	6.68986499e-03	-2.87795198e-03	-9.36067439e-04	-1.94188454e-03	5.02908549e-04	2.89902023e-03	-1.49986707e-02	1.79302584e-01	7.46526210e-02	1.04649963e-01
100             	1.91525146e-02	1.24973782e-02	6.65513644e-03	-2.91537701e-03	-9.44075141e-04	-1.97130187e-03	5.13613363e-04	2.92112088e-03	-1.50100390e-02	1.79312674e-01	7.46462980e-02	1.04666376e-01
101             	1.91282014e-02	1.25119520e-02	6.61624945e-03	-2.95798180e-03	-9.53766911e-04	-2.00421489e-03	5.25223991e-04	2.94785125e-03	-1.50208698e-02	1.79322339e-01	7.46403000e-02	1.04682040e-01
102             	1.91048911e-02	1.25319354e-02	6.57295565e-03	-3.00630692e-03	-9.65351244e-04	-2.04095567e-03	5.37802216e-04	2.97948987e-03	-1.50311831e-02	1.79331625e-01	7.46346294e-02	1.04696996e-01
103             	1.90822804e-02	1.25569504e-02	6.52532999e-03	-3.05971014e-03	-9.78771575e-04	-2.08093857e-03	5.51083495e-04	3.01581022e-03	-1.50411050e-02	1.79340718e-01	7.46292543e-02	1.04711464e-01
104             	1.90603561e-02	1.25867786e-02	6.47357750e-03	-3.11768872e-03	-9.94045244e-04	-2.12364348e-03	5.64799118e-04	3.05660056e-03	-1.50506575e-02	1.79349725e-01	7.46242052e-02	1.04725520e-01
105             	1.90389031e-02	1.26212084e-02	6.41769467e-03	-3.18006988e-03	-1.01120589e-03	-2.16886399e-03	5.78829048e-04	3.10175687e-03	-1.50599168e-02	1.79358749e-01	7.46194577e-02	1.04739291e-01
106             	1.90177848e-02	1.26602105e-02	6.35757431e-03	-3.24709219e-03	-1.03035970e-03	-2.21673249e-03	5.93186400e-04	3.15131808e-03	-1.50689614e-02	1.79367833e-01	7.46149550e-02	1.04752878e-01
107             	1.89968837e-02	1.27039097e-02	6.29297401e-03	-3.31929645e-03	-1.05164822e-03	-2.26764823e-03	6.08000006e-04	3.20546786e-03	-1.50778408e-02	1.79376968e-01	7.46106430e-02	1.04766325e-01
108             	1.89763350e-02	1.27521740e-02	6.22416099e-03	-3.39655042e-03	-1.07505437e-03	-2.32149605e-03	6.23220843e-04	3.26400648e-03	-1.50865169e-02	1.79386079e-01	7.46065226e-02	1.04779557e-01
109             	1.89562977e-02	1.28048669e-02	6.15143078e-03	-3.47860177e-03	-1.10057055e-03	-2.37803123e-03	6.38730340e-04	3.32671808e-03	-1.50948873e-02	1.79395029e-01	7.46026273e-02	1.04792402e-01
110             	1.89370686e-02	1.28617515e-02	6.07531710e-03	-3.56482578e-03	-1.12810871e-03	-2.43671707e-03	6.54304179e-04	3.39321722e-03	-1.51028504e-02	1.79403717e-01	7.45990080e-02	1.04804709e-01
111             	1.89187018e-02	1.29222432e-02	5.99645867e-03	-3.65419713e-03	-1.15755182e-03	-2.49664532e-03	6.69546750e-04	3.46289224e-03	-1.51103682e-02	1.79412101e-01	7.45956825e-02	1.04816419e-01
112             	1.89011011e-02	1.29855122e-02	5.91558884e-03	-3.74530313e-03	-1.18872625e-03	-2.55657688e-03	6.83925317e-04	3.53496170e-03	-1.51175299e-02	1.79420246e-01	7.45925933e-02	1.04827653e-01
113             	1.88837520e-02	1.30500697e-02	5.83368237e-03	-3.83602628e-03	-1.22124899e-03	-2.61477729e-03	6.96764151e-04	3.60819365e-03	-1.51245314e-02	1.79428311e-01	7.45896240e-02	1.04838687e-01
114             	1.88662529e-02	1.31146525e-02	5.75160036e-03	-3.92452433e-03	-1.25477068e-03	-2.66975365e-03	7.07491485e-04	3.68152607e-03	-1.51315846e-02	1.79436450e-01	7.45866404e-02	1.04849810e-01
115             	1.88480349e-02	1.31778483e-02	5.67018662e-03	-4.00894184e-03	-1.28886120e-03	-2.72008064e-03	7.15609716e-04	3.75383082e-03	-1.51389128e-02	1.79444829e-01	7.45835019e-02	1.04861327e-01
116             	1.88289493e-02	1.32384712e-02	5.59047812e-03	-4.08724465e-03	-1.32312699e-03	-2.76411766e-03	7.20495335e-04	3.82399654e-03	-1.51466302e-02	1.79453516e-01	7.45801278e-02	1.04873388e-01
117             	1.88088133e-02	1.32953729e-02	5.51344032e-03	-4.15756381e-03	-1.35709990e-03	-2.80046391e-03	7.21682008e-04	3.89096631e-03	-1.51547932e-02	1.79462542e-01	7.45764778e-02	1.04886064e-01
118             	1.87879150e-02	1.33475431e-02	5.44037193e-03	-4.21777516e-03	-1.39024992e-03	-2.82752524e-03	7.18637664e-04	3.95358559e-03	-1.51633098e-02	1.79471830e-01	7.45726052e-02	1.04899225e-01
119             	1.87664857e-02	1.33939738e-02	5.37251190e-03	-4.26582914e-03	-1.42201385e-03	-2.84381529e-03	7.10900718e-04	4.01073095e-03	-1.51720480e-02	1.79481276e-01	7.45685897e-02	1.04912686e-01
120             	1.87449712e-02	1.34339047e-02	5.31106649e-03	-4.29988522e-03	-1.45184016e-03	-2.84804506e-03	6.98102449e-04	4.06141910e-03	-1.51808393e-02	1.79490749e-01	7.45645353e-02	1.04926214e-01
121             	1.87234403e-02	1.34665092e-02	5.25693106e-03	-4.31832197e-03	-1.47917079e-03	-2.83915119e-03	6.79990201e-04	4.10478907e-03	-1.51896283e-02	1.79500212e-01	7.45604779e-02	1.04939734e-01
122             	1.87018413e-02	1.34909579e-02	5.21088345e-03	-4.31966029e-03	-1.50347378e-03	-2.81618651e-03	6.56356364e-04	4.14003721e-03	-1.51984567e-02	1.79509703e-01	7.45563946e-02	1.04953308e-01
123             	1.86800166e-02	1.35064379e-02	5.17357873e-03	-4.30259063e-03	-1.52424022e-03	-2.77835041e-03	6.27055094e-04	4.16642956e-03	-1.52073661e-02	1.79519266e-01	7.45522667e-02	1.04966999e-01
124             	1.86579723e-02	1.35121964e-02	5.14577589e-03	-4.26573315e-03	-1.54094917e-03	-2.72478399e-03	5.91917410e-04	4.18321024e-03	-1.52163741e-02	1.79528926e-01	7.45480891e-02	1.04980837e-01
125             	1.86356368e-02	1.35074876e-02	5.12814920e-03	-4.20777668e-03	-1.55307366e-03	-2.65470302e-03	5.50814680e-04	4.18966919e-03	-1.52254960e-02	1.79538685e-01	7.45438463e-02	1.04994838e-01
126             	1.86133128e-02	1.34917594e-02	5.12155342e-03	-4.12742264e-03	-1.56007154e-03	-2.56735110e-03	5.03639777e-04	4.18510300e-03	-1.52346404e-02	1.79548458e-01	7.45395886e-02	1.05008869e-01
127             	1.85912096e-02	1.34646146e-02	5.12659497e-03	-4.02378403e-03	-1.56146963e-03	-2.46231439e-03	4.50422381e-04	4.16900981e-03	-1.52437088e-02	1.79558158e-01	7.45353704e-02	1.05022788e-01
128             	1.85697074e-02	1.34258813e-02	5.14382613e-03	-3.89625650e-03	-1.55685495e-03	-2.33940155e-03	3.91273300e-04	4.14102759e-03	-1.52525698e-02	1.79567676e-01	7.45312681e-02	1.05036408e-01
129             	1.85491497e-02	1.33755242e-02	5.17362547e-03	-3.74455472e-03	-1.54588135e-03	-2.19867337e-03	3.26396011e-04	4.10094937e-03	-1.52610619e-02	1.79576880e-01	7.45273780e-02	1.05049502e-01
130             	1.85300084e-02	1.33137669e-02	5.21624154e-03	-3.56883696e-03	-1.52832676e-03	-2.04051020e-03	2.56091717e-04	4.04876266e-03	-1.52690116e-02	1.79585632e-01	7.45238043e-02	1.05061828e-01
131             	1.85126019e-02	1.32410987e-02	5.27150328e-03	-3.36999881e-03	-1.50408370e-03	-1.86591511e-03	1.80915705e-04	3.98479769e-03	-1.52762758e-02	1.79593814e-01	7.45206314e-02	1.05073183e-01
132             	1.84973135e-02	1.31581885e-02	5.33912504e-03	-3.14920913e-03	-1.47310286e-03	-1.67610627e-03	1.01501706e-04	3.90953173e-03	-1.52827304e-02	1.79601318e-01	7.45179287e-02	1.05083389e-01
133             	1.84843003e-02	1.30656352e-02	5.41866511e-03	-2.90775622e-03	-1.43537536e-03	-1.47238087e-03	1.85027553e-05	3.82348507e-03	-1.52883019e-02	1.79608078e-01	7.45157371e-02	1.05092341e-01
134             	1.84736768e-02	1.29640605e-02	5.50961633e-03	-2.64704269e-03	-1.39095284e-03	-1.25608985e-03	-6.74314929e-05	3.72722206e-03	-1.52929649e-02	1.79614076e-01	7.45140730e-02	1.05100003e-01
135             	1.84651452e-02	1.28540988e-02	5.61104643e-03	-2.36893994e-03	-1.34000960e-03	-1.02893034e-03	-1.55539635e-04	3.62152616e-03	-1.52968171e-02	1.79619396e-01	7.45128807e-02	1.05106515e-01
136             	1.84584626e-02	1.27366128e-02	5.72184981e-03	-2.07575426e-03	-1.28287372e-03	-7.92880544e-04	-2.44996586e-04	3.50738147e-03	-1.52999686e-02	1.79624134e-01	7.45120985e-02	1.05112036e-01
137             	1.84531309e-02	1.26127428e-02	5.84038806e-03	-1.77063711e-03	-1.22004111e-03	-5.50596002e-04	-3.34722554e-04	3.38617739e-03	-1.53026015e-02	1.79628442e-01	7.45116195e-02	1.05116822e-01
138             	1.84487408e-02	1.24839601e-02	5.96478067e-03	-1.45731536e-03	-1.15215583e-03	-3.05159531e-04	-4.23498147e-04	3.25958971e-03	-1.53049051e-02	1.79632462e-01	7.45113257e-02	1.05121136e-01
139             	1.84447867e-02	1.23518788e-02	6.09290795e-03	-1.13994096e-03	-1.07998015e-03	-5.99608163e-05	-5.10009665e-04	3.12948542e-03	-1.53070680e-02	1.79636346e-01	7.45111048e-02	1.05125241e-01
140             	1.84410088e-02	1.22181163e-02	6.22289247e-03	-8.22422672e-04	-1.00431148e-03	1.81888808e-04	-5.93100144e-04	2.99761191e-03	-1.53092195e-02	1.79640189e-01	7.45108749e-02	1.05129314e-01
141             	1.84372703e-02	1.20843316e-02	6.35293874e-03	-5.08623457e-04	-9.25976051e-04	4.17352594e-04	-6.71664323e-04	2.86569641e-03	-1.53114011e-02	1.79644030e-01	7.45106139e-02	1.05133416e-01
142             	1.84335924e-02	1.19523159e-02	6.48127649e-03	-2.02581852e-04	-8.45920447e-04	6.43338595e-04	-7.44629521e-04	2.73551972e-03	-1.53136283e-02	1.79647872e-01	7.45103076e-02	1.05137564e-01
143             	1.84298714e-02	1.18239546e-02	6.60591682e-03	9.13745643e-05	-7.65143762e-04	8.56518326e-04	-8.10831044e-04	2.60901889e-03	-1.53159275e-02	1.79651731e-01	7.45099382e-02	1.05141793e-01
144             	1.84260370e-02	1.17011219e-02	6.72491512e-03	3.68944511e-04	-6.84706508e-04	1.05365102e-03	-8.69178763e-04	2.48810338e-03	-1.53183448e-02	1.79655630e-01	7.45094703e-02	1.05146160e-01
145             	1.84220533e-02	1.15857015e-02	6.83635182e-03	6.25810578e-04	-6.05720117e-04	1.23153069e-03	-9.18625406e-04	2.37467485e-03	-1.53208651e-02	1.79659576e-01	7.45089229e-02	1.05150653e-01