# Force and moment coefficients
# dragDir       : (1.00000000e+00 0.00000000e+00 0.00000000e+00)
# sideDir       : (0.00000000e+00 0.00000000e+00 -1.00000000e+00)
# liftDir       : (0.00000000e+00 1.00000000e+00 0.00000000e+00)
# rollAxis      : (1.00000000e+00 0.00000000e+00 0.00000000e+00)
# pitchAxis     : (0.00000000e+00 0.00000000e+00 -1.00000000e+00)
# yawAxis       : (0.00000000e+00 1.00000000e+00 0.00000000e+00)
# magUInf       : 2.36600000e+02
# lRef          : 1.03300000e-01
# Aref          : 6.78000000e-03
# CofR          : (3.50000000e-02 0.00000000e+00 0.00000000e+00)
#
# Time          	Cd              	Cd(f)           	Cd(r)           	Cl              	Cl(f)           	Cl(r)           	CmPitch         	CmRoll          	CmYaw           	Cs              	Cs(f)           	Cs(r)           
1               	8.71626896e-02	4.65703686e-02	4.05923210e-02	-1.64405470e-03	-1.26675568e-03	-3.77299019e-04	-4.44728329e-04	2.98902383e-03	4.85105521e-03	1.73395494e-01	9.15488023e-02	8.18466918e-02
2               	1.66175639e-01	8.60551586e-02	8.01204808e-02	-1.81992318e-03	-2.11273140e-03	2.92808215e-04	-1.20276981e-03	2.96733888e-03	2.44017263e-02	1.70694720e-01	1.09749086e-01	6.09456335e-02
3               	1.68279286e-01	8.69533044e-02	8.13259818e-02	-1.27596658e-03	-2.07927799e-03	8.03311412e-04	-1.44129470e-03	2.81366132e-03	2.36401027e-02	1.73375189e-01	1.10327697e-01	6.30474916e-02
4               	1.16669047e-01	6.08769413e-02	5.57921058e-02	-1.93197444e-04	-1.40649497e-03	1.21329752e-03	-1.30989625e-03	2.54241777e-03	8.81557496e-03	1.79176690e-01	9.84039198e-02	8.07727699e-02
5               	4.46459965e-02	2.46430570e-02	2.00029394e-02	8.12005685e-04	-6.29947987e-04	1.44195367e-03	-1.03595083e-03	2.32005880e-03	-1.09586046e-02	1.85087221e-01	8.15850061e-02	1.03502215e-01
6               	-1.62327582e-02	-5.89259686e-03	-1.03401614e-02	1.35096349e-03	-4.83933623e-05	1.39935685e-03	-7.23875108e-04	2.22378225e-03	-2.71095105e-02	1.88579659e-01	6.71803189e-02	1.21399340e-01
7               	-4.73128180e-02	-2.14171212e-02	-2.58956968e-02	1.38243917e-03	2.57256845e-04	1.12518232e-03	-4.33962740e-04	2.23928778e-03	-3.46762407e-02	1.88505456e-01	5.95764871e-02	1.28928969e-01
8               	-4.57852790e-02	-2.06309678e-02	-2.51543112e-02	1.15066543e-03	3.80627920e-04	7.70037510e-04	-1.94704795e-04	2.26167169e-03	-3.31266245e-02	1.85278380e-01	5.95125655e-02	1.25765814e-01
9               	-2.09970982e-02	-8.24919118e-03	-1.27479070e-02	8.58168716e-04	4.25941387e-04	4.32227329e-04	-3.14297075e-06	2.24935791e-03	-2.52846938e-02	1.80381033e-01	6.49058229e-02	1.15475210e-01
10              	1.17618858e-02	8.11376791e-03	3.64811791e-03	5.58473181e-04	3.65251664e-04	1.93221516e-04	8.60150741e-05	2.23282500e-03	-1.55908063e-02	1.75760319e-01	7.22893533e-02	1.03470966e-01
11              	3.83645888e-02	2.14568576e-02	1.69077312e-02	2.29459894e-04	1.76404697e-04	5.30551972e-05	6.16747499e-05	2.27456317e-03	-8.08347698e-03	1.73090720e-01	7.84618828e-02	9.46288367e-02
12              	5.06154085e-02	2.76852562e-02	2.29301523e-02	-5.21262016e-05	-5.75780657e-05	5.45186416e-06	-3.15149649e-05	2.37755198e-03	-5.01045368e-03	1.73050019e-01	8.15145560e-02	9.15354634e-02
13              	4.79230608e-02	2.65258107e-02	2.13972501e-02	-3.87287289e-04	-3.57178464e-04	-3.01088241e-05	-1.63534820e-04	2.56428027e-03	-6.36751716e-03	1.75193749e-01	8.12293576e-02	9.39643919e-02
14              	3.54150828e-02	2.04943292e-02	1.49207536e-02	-7.40443041e-04	-6.67192995e-04	-7.32500461e-05	-2.96971474e-04	2.78678779e-03	-1.04974652e-02	1.78362104e-01	7.86835869e-02	9.96785174e-02
15              	2.04930769e-02	1.32079586e-02	7.28511823e-03	-1.00404084e-03	-8.88966650e-04	-1.15074187e-04	-3.86946231e-04	2.96142020e-03	-1.51284478e-02	1.81208961e-01	7.54760329e-02	1.05732928e-01
16              	9.31022982e-03	7.67912289e-03	1.63110692e-03	-1.07686364e-03	-9.38140693e-04	-1.38722951e-04	-3.99708871e-04	3.02400799e-03	-1.84259412e-02	1.82780082e-01	7.29640998e-02	1.09815982e-01
17              	4.93798297e-03	5.42735872e-03	-4.89375756e-04	-9.27602588e-04	-8.07785919e-04	-1.19816670e-04	-3.43984625e-04	2.95836724e-03	-1.95349032e-02	1.82799237e-01	7.18647155e-02	1.10934522e-01
18              	7.09127973e-03	6.35423990e-03	7.37039825e-04	-6.48177256e-04	-5.83042618e-04	-6.51346385e-05	-2.58953990e-04	2.80860004e-03	-1.86275094e-02	1.81598676e-01	7.21718287e-02	1.09426848e-01
19              	1.31494386e-02	9.19715801e-03	3.95228055e-03	-3.01126145e-04	-3.14148464e-04	1.30223194e-05	-1.63585392e-04	2.62243873e-03	-1.65753142e-02	1.79858497e-01	7.33539342e-02	1.06504563e-01
20              	1.97740642e-02	1.23558965e-02	7.41816775e-03	-7.31606483e-06	-9.51503175e-05	8.78342526e-05	-9.14922850e-05	2.46886438e-03	-1.44381852e-02	1.78294735e-01	7.47091822e-02	1.03585553e-01
21              	2.43171873e-02	1.45489257e-02	9.76826162e-03	1.49350081e-04	1.89251949e-05	1.30424886e-04	-5.57498453e-05	2.39033204e-03	-1.30317144e-02	1.77417865e-01	7.56772181e-02	1.01740647e-01
22              	2.56242300e-02	1.52357689e-02	1.03884612e-02	7.35510450e-05	-2.76051966e-05	1.01156242e-04	-6.43807190e-05	2.42365386e-03	-1.26890996e-02	1.77380414e-01	7.60011072e-02	1.01379306e-01
23              	2.40832381e-02	1.45936897e-02	9.48954835e-03	-2.14210335e-04	-2.07846343e-04	-6.36399197e-06	-1.00741175e-04	2.55207069e-03	-1.32572406e-02	1.77999677e-01	7.57425977e-02	1.02257079e-01
24              	2.10589014e-02	1.32541941e-02	7.80470728e-03	-6.08458764e-04	-4.49097896e-04	-1.59360868e-04	-1.44868514e-04	2.72474343e-03	-1.42821685e-02	1.78908645e-01	7.51721539e-02	1.03736491e-01
25              	1.81203821e-02	1.19353896e-02	6.18499248e-03	-9.60228504e-04	-6.54185068e-04	-3.06043436e-04	-1.74070816e-04	2.87519857e-03	-1.52546343e-02	1.79724412e-01	7.46075718e-02	1.05116840e-01
26              	1.63390221e-02	1.11314263e-02	5.20759582e-03	-1.17044444e-03	-7.68787464e-04	-4.01656978e-04	-1.83565243e-04	2.96191522e-03	-1.58335318e-02	1.80197825e-01	7.42653808e-02	1.05932444e-01
27              	1.60580385e-02	1.10035744e-02	5.05446412e-03	-1.21633105e-03	-7.88054347e-04	-4.28276707e-04	-1.79888820e-04	2.97455513e-03	-1.59146910e-02	1.80257332e-01	7.42139750e-02	1.06043357e-01
28              	1.69798001e-02	1.14143111e-02	5.56548902e-03	-1.12266710e-03	-7.29786027e-04	-3.92881072e-04	-1.68452477e-04	2.92441103e-03	-1.55995400e-02	1.79985001e-01	7.43929603e-02	1.05592040e-01
29              	1.84286172e-02	1.20505109e-02	6.37810627e-03	-9.38137077e-04	-6.23512270e-04	-3.14624807e-04	-1.54443731e-04	2.83620233e-03	-1.51105915e-02	1.79555626e-01	7.46672214e-02	1.04888404e-01
30              	1.97121076e-02	1.26018494e-02	7.11025823e-03	-7.40595838e-04	-5.11731805e-04	-2.28864033e-04	-1.41433886e-04	2.74579558e-03	-1.46761857e-02	1.79151763e-01	7.48996957e-02	1.04252067e-01
31              	2.03822842e-02	1.28738261e-02	7.50845818e-03	-6.02179270e-04	-4.28918783e-04	-1.73260488e-04	-1.27829147e-04	2.68268394e-03	-1.44443513e-02	1.78900661e-01	7.50059790e-02	1.03894682e-01
32              	2.03360833e-02	1.28335031e-02	7.50258026e-03	-5.65809281e-04	-3.96110800e-04	-1.69698481e-04	-1.13206160e-04	2.66546142e-03	-1.44506222e-02	1.78847774e-01	7.49732646e-02	1.03874509e-01
33              	1.97841287e-02	1.25823498e-02	7.20177887e-03	-6.23899176e-04	-4.10656980e-04	-2.13242196e-04	-9.87073918e-05	2.69028548e-03	-1.46282894e-02	1.78957293e-01	7.48503573e-02	1.04106936e-01
34              	1.90635501e-02	1.22747399e-02	6.78881018e-03	-7.52788097e-04	-4.62882002e-04	-2.89906095e-04	-8.64879536e-05	2.74296487e-03	-1.48682982e-02	1.79153130e-01	7.47082668e-02	1.04444863e-01
35              	1.84874659e-02	1.20457196e-02	6.44174636e-03	-9.05729934e-04	-5.29673312e-04	-3.76056622e-04	-7.68083452e-05	2.80198660e-03	-1.50670771e-02	1.79351680e-01	7.46087628e-02	1.04742917e-01
36              	1.82355969e-02	1.19665636e-02	6.26903323e-03	-1.03665842e-03	-5.91354732e-04	-4.45303689e-04	-7.30255211e-05	2.84876520e-03	-1.51631264e-02	1.79490405e-01	7.45820763e-02	1.04908329e-01
37              	1.83113037e-02	1.20300825e-02	6.28122122e-03	-1.11333093e-03	-6.30791461e-04	-4.82539466e-04	-7.41259971e-05	2.87443062e-03	-1.51511477e-02	1.79543966e-01	7.46208351e-02	1.04923131e-01
38              	1.85956141e-02	1.21749466e-02	6.42066750e-03	-1.12840647e-03	-6.41642077e-04	-4.86764391e-04	-7.74388431e-05	2.87713955e-03	-1.50660241e-02	1.79519628e-01	7.46937900e-02	1.04825838e-01
39              	1.89229784e-02	1.23258541e-02	6.59712430e-03	-1.10217838e-03	-6.31430832e-04	-4.70747551e-04	-8.03416406e-05	2.86436492e-03	-1.49602240e-02	1.79446919e-01	7.47632357e-02	1.04683684e-01
40              	1.91543131e-02	1.24172367e-02	6.73707641e-03	-1.04904438e-03	-6.04226782e-04	-4.44817595e-04	-7.97045937e-05	2.84008016e-03	-1.48799784e-02	1.79361567e-01	7.48008051e-02	1.04560762e-01
41              	1.92313885e-02	1.24320244e-02	6.79936410e-03	-1.00401789e-03	-5.75105951e-04	-4.28911934e-04	-7.30970085e-05	2.81633017e-03	-1.48468505e-02	1.79290215e-01	7.47982568e-02	1.04491958e-01
42              	1.91682736e-02	1.23882305e-02	6.78004305e-03	-9.93656720e-04	-5.57037500e-04	-4.36619220e-04	-6.02091401e-05	2.80409375e-03	-1.48595791e-02	1.79248772e-01	7.47648067e-02	1.04483965e-01
43              	1.90215721e-02	1.23199394e-02	6.70163266e-03	-1.03112991e-03	-5.57490280e-04	-4.73639625e-04	-4.19253273e-05	2.80915338e-03	-1.49028904e-02	1.79243082e-01	7.47186505e-02	1.04524431e-01
44              	1.88689369e-02	1.22649247e-02	6.60401213e-03	-1.10985463e-03	-5.76683689e-04	-5.33170944e-04	-2.17563724e-05	2.83045631e-03	-1.49530395e-02	1.79265987e-01	7.46799539e-02	1.04586033e-01
45              	1.87705072e-02	1.22462312e-02	6.52427598e-03	-1.20980355e-03	-6.09105072e-04	-6.00698480e-04	-4.20329623e-06	2.86097760e-03	-1.49900096e-02	1.79304173e-01	7.46620768e-02	1.04642096e-01
46              	1.87521394e-02	1.22662602e-02	6.48587922e-03	-1.30168332e-03	-6.44254633e-04	-6.57428686e-04	6.58702661e-06	2.89019048e-03	-1.50033428e-02	1.79342728e-01	7.46680213e-02	1.04674707e-01
47              	1.88040170e-02	1.23114658e-02	6.49255118e-03	-1.36339326e-03	-6.72404788e-04	-6.90988471e-04	9.29184167e-06	2.90945729e-03	-1.49935605e-02	1.79369806e-01	7.46913425e-02	1.04678464e-01
48              	1.88925338e-02	1.23617825e-02	6.53075128e-03	-1.38751699e-03	-6.88146644e-04	-6.99370348e-04	5.61185205e-06	2.91551562e-03	-1.49694029e-02	1.79379350e-01	7.47202722e-02	1.04659078e-01
49              	1.89792367e-02	1.23983356e-02	6.58090104e-03	-1.37709525e-03	-6.88960695e-04	-6.88134553e-04	-4.13070977e-07	2.90871730e-03	-1.49423810e-02	1.79371501e-01	7.47433693e-02	1.04628131e-01
50              	1.90373207e-02	1.24130450e-02	6.62427571e-03	-1.34897185e-03	-6.77765035e-04	-6.71206816e-04	-3.27910951e-06	2.89438462e-03	-1.49215833e-02	1.79350793e-01	7.47538133e-02	1.04596980e-01
51              	1.90584207e-02	1.24097627e-02	6.64865800e-03	-1.32635934e-03	-6.62326968e-04	-6.64032370e-04	8.52700956e-07	2.88055234e-03	-1.49110976e-02	1.79324010e-01	7.47509075e-02	1.04573103e-01
52              	1.90512591e-02	1.24009581e-02	6.65030105e-03	-1.32925328e-03	-6.51766341e-04	-6.77486936e-04	1.28602978e-05	2.87532851e-03	-1.49098052e-02	1.79298216e-01	7.47393031e-02	1.04558913e-01
53              	1.90338593e-02	1.23987182e-02	6.63514103e-03	-1.36523806e-03	-6.52196415e-04	-7.13041643e-04	3.04226139e-05	2.88178861e-03	-1.49132289e-02	1.79278826e-01	7.47261841e-02	1.04552642e-01
54              	1.90243984e-02	1.24101712e-02	6.61422726e-03	-1.42852464e-03	-6.64621662e-04	-7.63902981e-04	4.96406593e-05	2.89797196e-03	-1.49160672e-02	1.79268440e-01	7.47181530e-02	1.04550287e-01
55              	1.90342266e-02	1.24361339e-02	6.59809270e-03	-1.50505772e-03	-6.85719457e-04	-8.19338259e-04	6.68094011e-05	2.91902059e-03	-1.49143968e-02	1.79266515e-01	7.47188608e-02	1.04547654e-01
56              	1.90645270e-02	1.24707611e-02	6.59376589e-03	-1.57715318e-03	-7.09069045e-04	-8.68084131e-04	7.95075429e-05	2.93849763e-03	-1.49070625e-02	1.79270230e-01	7.47280526e-02	1.04542178e-01
57              	1.91079608e-02	1.25051599e-02	6.60280090e-03	-1.63127053e-03	-7.28359073e-04	-9.02911452e-04	8.72761899e-05	2.95117952e-03	-1.48955470e-02	1.79275521e-01	7.47422136e-02	1.04533308e-01
58              	1.91539795e-02	1.25326343e-02	6.62134526e-03	-1.66425341e-03	-7.40550471e-04	-9.23702938e-04	9.15762332e-05	2.95564451e-03	-1.48825741e-02	1.79278398e-01	7.47566251e-02	1.04521773e-01
59              	1.91936101e-02	1.25497660e-02	6.64384412e-03	-1.68023501e-03	-7.44929886e-04	-9.35305120e-04	9.51876172e-05	2.95296096e-03	-1.48707541e-02	1.79276081e-01	7.47672862e-02	1.04508794e-01
60              	1.92228286e-02	1.25582396e-02	6.66458901e-03	-1.68943817e-03	-7.43768497e-04	-9.45669672e-04	1.00950587e-04	2.94682528e-03	-1.48614991e-02	1.79267681e-01	7.47723411e-02	1.04495339e-01
61              	1.92434443e-02	1.25636913e-02	6.67975297e-03	-1.70452212e-03	-7.41579674e-04	-9.62942450e-04	1.10681388e-04	2.94196917e-03	-1.48545408e-02	1.79254002e-01	7.47724602e-02	1.04481542e-01
62              	1.92600710e-02	1.25721437e-02	6.68792736e-03	-1.73433074e-03	-7.42613672e-04	-9.91717066e-04	1.24551697e-04	2.94210817e-03	-1.48488424e-02	1.79237494e-01	7.47699044e-02	1.04467589e-01
63              	1.92784771e-02	1.25876630e-02	6.69081408e-03	-1.78068127e-03	-7.49051969e-04	-1.03162930e-03	1.41288665e-04	2.94842446e-03	-1.48428841e-02	1.79221177e-01	7.47677042e-02	1.04453472e-01
64              	1.93023488e-02	1.26108463e-02	6.69150249e-03	-1.83884254e-03	-7.60620176e-04	-1.07822236e-03	1.58801092e-04	2.95967192e-03	-1.48356227e-02	1.79207696e-01	7.47682252e-02	1.04439471e-01
65              	1.93326517e-02	1.26391190e-02	6.69353269e-03	-1.90052227e-03	-7.75291048e-04	-1.12523122e-03	1.74970085e-04	2.97279316e-03	-1.48267173e-02	1.79198399e-01	7.47724822e-02	1.04425917e-01
66              	1.93671115e-02	1.26679266e-02	6.69918492e-03	-1.95751143e-03	-7.90258104e-04	-1.16725332e-03	1.88497610e-04	2.98437085e-03	-1.48167811e-02	1.79193223e-01	7.47798304e-02	1.04413393e-01
67              	1.94024566e-02	1.26929878e-02	6.70946882e-03	-2.00471506e-03	-8.03080893e-04	-1.20163417e-03	1.99276637e-04	2.99175949e-03	-1.48067173e-02	1.79190646e-01	7.47886056e-02	1.04402040e-01
68              	1.94349234e-02	1.27115499e-02	6.72337354e-03	-2.04181567e-03	-8.12563288e-04	-1.22925238e-03	2.08344546e-04	2.99408816e-03	-1.47976523e-02	1.79188721e-01	7.47967081e-02	1.04392013e-01
69              	1.94623189e-02	1.27232415e-02	6.73907740e-03	-2.07206330e-03	-8.18701078e-04	-1.25336222e-03	2.17330570e-04	2.99208207e-03	-1.47902643e-02	1.79185585e-01	7.48025281e-02	1.04383057e-01
70              	1.94844160e-02	1.27297301e-02	6.75468589e-03	-2.10057608e-03	-8.22599103e-04	-1.27797697e-03	2.27688936e-04	2.98752211e-03	-1.47846467e-02	1.79180196e-01	7.48054512e-02	1.04374745e-01
71              	1.95024970e-02	1.27338403e-02	6.76865674e-03	-2.13247478e-03	-8.26174926e-04	-1.30629986e-03	2.40062465e-04	2.98259176e-03	-1.47804577e-02	1.79172566e-01	7.48058253e-02	1.04366741e-01
72              	1.95186393e-02	1.27382193e-02	6.78042006e-03	-2.17052227e-03	-8.31022510e-04	-1.33949976e-03	2.54238624e-04	2.97889960e-03	-1.47770995e-02	1.79163589e-01	7.48046951e-02	1.04358894e-01
73              	1.95345839e-02	1.27445079e-02	6.79007602e-03	-2.21465902e-03	-8.37860881e-04	-1.37679814e-03	2.69468630e-04	2.97721595e-03	-1.47740367e-02	1.79154720e-01	7.48033231e-02	1.04351397e-01
74              	1.95506536e-02	1.27525846e-02	6.79806897e-03	-2.26223482e-03	-8.46399416e-04	-1.41583540e-03	2.84717993e-04	2.97725784e-03	-1.47711933e-02	1.79147517e-01	7.48025652e-02	1.04344952e-01
75              	1.95666710e-02	1.27610357e-02	6.80563525e-03	-2.30907431e-03	-8.55636957e-04	-1.45343735e-03	2.98900196e-04	2.97770023e-03	-1.47686326e-02	1.79142830e-01	7.48027825e-02	1.04340048e-01
76              	1.95807756e-02	1.27674244e-02	6.81335112e-03	-2.35129695e-03	-8.64320647e-04	-1.48697630e-03	3.11327826e-04	2.97703666e-03	-1.47669609e-02	1.79141010e-01	7.48035441e-02	1.04337466e-01
77              	1.95914215e-02	1.27698393e-02	6.82158222e-03	-2.38695404e-03	-8.71566991e-04	-1.51538705e-03	3.21910027e-04	2.97412852e-03	-1.47666950e-02	1.79141616e-01	7.48041128e-02	1.04337503e-01
78              	1.95972920e-02	1.27670557e-02	6.83023630e-03	-2.41605341e-03	-8.77097998e-04	-1.53895541e-03	3.30928708e-04	2.96840972e-03	-1.47682731e-02	1.79143772e-01	7.48036127e-02	1.04340159e-01
79              	1.95978523e-02	1.27591289e-02	6.83872337e-03	-2.44065685e-03	-8.81227632e-04	-1.55942922e-03	3.39100792e-04	2.96020279e-03	-1.47718707e-02	1.79146558e-01	7.48014084e-02	1.04345150e-01
80              	1.95937939e-02	1.27473173e-02	6.84647659e-03	-2.46375325e-03	-8.84578313e-04	-1.57917494e-03	3.47298313e-04	2.95042034e-03	-1.47772576e-02	1.79149247e-01	7.47973658e-02	1.04351881e-01
81              	1.95861877e-02	1.27331219e-02	6.85306577e-03	-2.48753940e-03	-8.87782134e-04	-1.59975726e-03	3.55987565e-04	2.94002809e-03	-1.47840433e-02	1.79151598e-01	7.47917554e-02	1.04359842e-01
82              	1.95763899e-02	1.27177643e-02	6.85862553e-03	-2.51246020e-03	-8.91093679e-04	-1.62136652e-03	3.65136418e-04	2.92956939e-03	-1.47917241e-02	1.79153755e-01	7.47851535e-02	1.04368602e-01
83              	1.95648926e-02	1.27017862e-02	6.86310638e-03	-2.53770692e-03	-8.94437026e-04	-1.64326990e-03	3.74416437e-04	2.91933992e-03	-1.48000979e-02	1.79156395e-01	7.47780999e-02	1.04378296e-01
84              	1.95521536e-02	1.26855373e-02	6.86661628e-03	-2.56223220e-03	-8.97587269e-04	-1.66464493e-03	3.83528829e-04	2.90946053e-03	-1.48089846e-02	1.79160071e-01	7.47710507e-02	1.04389020e-01
85              	1.95376023e-02	1.26686688e-02	6.86893359e-03	-2.58472095e-03	-9.00238591e-04	-1.68448236e-03	3.92121884e-04	2.89986758e-03	-1.48185584e-02	1.79165317e-01	7.47641000e-02	1.04401217e-01
86              	1.95205259e-02	1.26507082e-02	6.86981769e-03	-2.60442632e-03	-9.02209740e-04	-1.70221658e-03	4.00003420e-04	2.89044527e-03	-1.48290320e-02	1.79172309e-01	7.47571226e-02	1.04415187e-01
87              	1.95002901e-02	1.26313952e-02	6.86889484e-03	-2.62160309e-03	-9.03531867e-04	-1.71807122e-03	4.07269677e-04	2.88125021e-03	-1.48406216e-02	1.79180917e-01	7.47498369e-02	1.04431080e-01
88              	1.94768464e-02	1.26109712e-02	6.86587519e-03	-2.63724174e-03	-9.04422849e-04	-1.73281889e-03	4.14198019e-04	2.87254801e-03	-1.48533094e-02	1.79190671e-01	7.47420261e-02	1.04448645e-01
89              	1.94507191e-02	1.25898877e-02	6.86083132e-03	-2.65221955e-03	-9.05146963e-04	-1.74707259e-03	4.20962814e-04	2.86452821e-03	-1.48668843e-02	1.79200992e-01	7.47336117e-02	1.04467380e-01
90              	1.94229330e-02	1.25687291e-02	6.85420390e-03	-2.66705761e-03	-9.05907243e-04	-1.76115037e-03	4.27621563e-04	2.85726259e-03	-1.48809840e-02	1.79211356e-01	7.47246942e-02	1.04486662e-01
91              	1.93941604e-02	1.25481014e-02	6.84605897e-03	-2.68214159e-03	-9.06869875e-04	-1.77527172e-03	4.34200920e-04	2.85102123e-03	-1.48953370e-02	1.79221560e-01	7.47154430e-02	1.04506117e-01
92              	1.93652280e-02	1.25288750e-02	6.83635298e-03	-2.69788305e-03	-9.08122662e-04	-1.78976039e-03	4.40818864e-04	2.84626102e-03	-1.49096372e-02	1.79231501e-01	7.47061136e-02	1.04525388e-01
93              	1.93365838e-02	1.25118748e-02	6.82470898e-03	-2.71474940e-03	-9.09703920e-04	-1.80504548e-03	4.47670781e-04	2.84358292e-03	-1.49236778e-02	1.79241350e-01	7.46969973e-02	1.04544353e-01
94              	1.93085207e-02	1.24978570e-02	6.81066373e-03	-2.73325350e-03	-9.11689907e-04	-1.82156360e-03	4.54936845e-04	2.84359661e-03	-1.49373147e-02	1.79251263e-01	7.46883169e-02	1.04562946e-01
95              	1.92811332e-02	1.24872667e-02	6.79386656e-03	-2.75372255e-03	-9.14186531e-04	-1.83953602e-03	4.62674747e-04	2.84670006e-03	-1.49504805e-02	1.79261370e-01	7.46802043e-02	1.04581165e-01
96              	1.92542979e-02	1.24802941e-02	6.77400381e-03	-2.77646143e-03	-9.17337223e-04	-1.85912421e-03	4.70893491e-04	2.85314515e-03	-1.49632013e-02	1.79271687e-01	7.46726423e-02	1.04599045e-01
97              	1.92278734e-02	1.24770853e-02	6.75078809e-03	-2.80201330e-03	-9.21389354e-04	-1.88062395e-03	4.79617296e-04	2.86314862e-03	-1.49755631e-02	1.79282175e-01	7.46655244e-02	1.04616651e-01
98              	1.92017526e-02	1.24779112e-02	6.72384145e-03	-2.83111012e-03	-9.26571580e-04	-1.90453854e-03	4.88983480e-04	2.87703486e-03	-1.49876167e-02	1.79292677e-01	7.46587217e-02	1.04633955e-01
99              	1.91759592e-02	1.24830361e-02	6.69292304e-03	-2.86440369e-03	-9.33119993e-04	-1.93128370e-03	4.99081852e-04	2.89505655e-03	-1.49993622e-02	1.79303042e-01	7.46521587e-02	1.04650883e-01
100             	1.91508630e-02	1.24929381e-02	6.65792484e-03	-2.90251086e-03	-9.41221540e-04	-1.96128932e-03	5.10033890e-04	2.91750664e-03	-1.50106478e-02	1.79313054e-01	7.46458793e-02	1.04667175e-01
101             	1.91267983e-02	1.25081310e-02	6.61866729e-03	-2.94615512e-03	-9.51094084e-04	-1.99506104e-03	5.21983479e-04	2.94473186e-03	-1.50213763e-02	1.79322643e-01	7.46399453e-02	1.04682698e-01
102             	1.91036207e-02	1.25286031e-02	6.57501758e-03	-2.99535828e-03	-9.62821428e-04	-2.03253685e-03	5.34857710e-04	2.97679278e-03	-1.50316334e-02	1.79331906e-01	7.46343198e-02	1.04697587e-01
103             	1.90810992e-02	1.25541014e-02	6.52699779e-03	-3.04969563e-03	-9.76404054e-04	-2.07329157e-03	5.48443760e-04	3.01355180e-03	-1.50415150e-02	1.79341007e-01	7.46289886e-02	1.04712019e-01
104             	1.90592646e-02	1.25844525e-02	6.47481208e-03	-3.10873894e-03	-9.91875233e-04	-2.11686370e-03	5.62494235e-04	3.05482020e-03	-1.50510336e-02	1.79350033e-01	7.46239827e-02	1.04726050e-01
105             	1.90378765e-02	1.26194428e-02	6.41843377e-03	-3.17233683e-03	-1.00927407e-03	-2.16306276e-03	5.76894348e-04	3.10050450e-03	-1.50602649e-02	1.79359069e-01	7.46192696e-02	1.04739799e-01
106             	1.90168155e-02	1.26590509e-02	6.35776456e-03	-3.24070556e-03	-1.02869800e-03	-2.21200756e-03	5.91654777e-04	3.15064317e-03	-1.50692911e-02	1.79368165e-01	7.46147914e-02	1.04753374e-01
107             	1.89959373e-02	1.27033587e-02	6.29257855e-03	-3.31431945e-03	-1.05027570e-03	-2.26404375e-03	6.06884026e-04	3.20539010e-03	-1.50781612e-02	1.79377306e-01	7.46104920e-02	1.04766814e-01
108             	1.89754593e-02	1.27522853e-02	6.22317394e-03	-3.39306932e-03	-1.07399829e-03	-2.31907103e-03	6.22536367e-04	3.26455569e-03	-1.50868115e-02	1.79386392e-01	7.46063843e-02	1.04780007e-01
109             	1.89555041e-02	1.28056870e-02	6.14981708e-03	-3.47671736e-03	-1.09986178e-03	-2.37685558e-03	6.38496903e-04	3.32793496e-03	-1.50951439e-02	1.79395302e-01	7.46025068e-02	1.04792795e-01
110             	1.89363889e-02	1.28633293e-02	6.07305959e-03	-3.56462795e-03	-1.12777819e-03	-2.43684975e-03	6.54535781e-04	3.39513485e-03	-1.51030603e-02	1.79403937e-01	7.45989083e-02	1.04805029e-01
111             	1.89180980e-02	1.29245374e-02	5.99356063e-03	-3.65566585e-03	-1.15761070e-03	-2.49805516e-03	6.70222229e-04	3.46548837e-03	-1.51105412e-02	1.79412283e-01	7.45956000e-02	1.04816682e-01
112             	1.89005433e-02	1.29884364e-02	5.91210691e-03	-3.74832301e-03	-1.18916908e-03	-2.55915393e-03	6.84992427e-04	3.53816473e-03	-1.51176855e-02	1.79420413e-01	7.45925212e-02	1.04827892e-01
113             	1.88831887e-02	1.30535047e-02	5.82968395e-03	-3.84043414e-03	-1.22206298e-03	-2.61837116e-03	6.98154089e-04	3.61191039e-03	-1.51246877e-02	1.79428486e-01	7.45895554e-02	1.04838931e-01
114             	1.88656492e-02	1.31184527e-02	5.74719653e-03	-3.93012780e-03	-1.25591758e-03	-2.67421023e-03	7.09146325e-04	3.68562807e-03	-1.51317616e-02	1.79436655e-01	7.45865660e-02	1.04850089e-01
115             	1.88473634e-02	1.31819265e-02	5.66543691e-03	-4.01555501e-03	-1.29033544e-03	-2.72521957e-03	7.17442065e-04	3.75824478e-03	-1.51391213e-02	1.79445077e-01	7.45834173e-02	1.04861660e-01
116             	1.88281982e-02	1.32427618e-02	5.58543639e-03	-4.09474193e-03	-1.32492506e-03	-2.76981687e-03	7.22445907e-04	3.82866272e-03	-1.51468838e-02	1.79453812e-01	7.45800222e-02	1.04873790e-01
117             	1.88079584e-02	1.32997649e-02	5.50819350e-03	-4.16575384e-03	-1.35919207e-03	-2.80656177e-03	7.23684846e-04	3.89578569e-03	-1.51550954e-02	1.79462882e-01	7.45763456e-02	1.04886536e-01
118             	1.87869778e-02	1.33519541e-02	5.43502363e-03	-4.22647058e-03	-1.39260029e-03	-2.83387028e-03	7.20634995e-04	3.95846525e-03	-1.51636550e-02	1.79472201e-01	7.45724455e-02	1.04899755e-01
119             	1.87654837e-02	1.33983061e-02	5.36717758e-03	-4.27478464e-03	-1.42457653e-03	-2.85020811e-03	7.12815787e-04	4.01556425e-03	-1.51724187e-02	1.79481657e-01	7.45684098e-02	1.04913247e-01
120             	1.87439406e-02	1.34380900e-02	5.30585065e-03	-4.30888189e-03	-1.45457216e-03	-2.85430973e-03	6.99868782e-04	4.06611967e-03	-1.51812215e-02	1.79491128e-01	7.45643426e-02	1.04926786e-01
121             	1.87223592e-02	1.34704522e-02	5.25190702e-03	-4.32713240e-03	-1.48202648e-03	-2.84510592e-03	6.81539722e-04	4.10927260e-03	-1.51900216e-02	1.79500590e-01	7.45602733e-02	1.04940316e-01
122             	1.87007265e-02	1.34945629e-02	5.20616359e-03	-4.32801605e-03	-1.50639681e-03	-2.82161924e-03	6.57611211e-04	4.14419965e-03	-1.51988583e-02	1.79510080e-01	7.45561818e-02	1.04953898e-01
123             	1.86788478e-02	1.35095834e-02	5.16926442e-03	-4.31021286e-03	-1.52716704e-03	-2.78304582e-03	6.27939392e-04	4.17015950e-03	-1.52077786e-02	1.79519651e-01	7.45520470e-02	1.04967604e-01
124             	1.86567697e-02	1.35147760e-02	5.14199371e-03	-4.27235021e-03	-1.54380884e-03	-2.72854136e-03	5.92366260e-04	4.18639113e-03	-1.52167969e-02	1.79529324e-01	7.45478649e-02	1.04981459e-01
125             	1.86343885e-02	1.35093786e-02	5.12500995e-03	-4.21312314e-03	-1.55579171e-03	-2.65733143e-03	5.50769863e-04	4.19218432e-03	-1.52259309e-02	1.79539099e-01	7.45436186e-02	1.04995480e-01
126             	1.86120448e-02	1.34928633e-02	5.11918146e-03	-4.13124056e-03	-1.56257109e-03	-2.56866947e-03	5.03049188e-04	4.18684092e-03	-1.52350846e-02	1.79548890e-01	7.45393604e-02	1.05009530e-01
127             	1.85899339e-02	1.34648428e-02	5.12509108e-03	-4.02585002e-03	-1.56368085e-03	-2.46216916e-03	4.49244154e-04	4.16987586e-03	-1.52441521e-02	1.79558601e-01	7.45351485e-02	1.05023453e-01
128             	1.85684675e-02	1.34251753e-02	5.14329221e-03	-3.89636392e-03	-1.55871110e-03	-2.33765282e-03	3.89470861e-04	4.14094155e-03	-1.52529988e-02	1.79568118e-01	7.45310602e-02	1.05037058e-01
129             	1.85479684e-02	1.33738409e-02	5.17412749e-03	-3.74255021e-03	-1.54732590e-03	-2.19522431e-03	3.23949208e-04	4.09985669e-03	-1.52614614e-02	1.79577307e-01	7.45271921e-02	1.05050115e-01
130             	1.85289332e-02	1.33111177e-02	5.21781552e-03	-3.56466455e-03	-1.52932080e-03	-2.03534375e-03	2.53011476e-04	4.04665107e-03	-1.52693673e-02	1.79586029e-01	7.45236473e-02	1.05062382e-01
131             	1.85116468e-02	1.32375110e-02	5.27413577e-03	-3.36368066e-03	-1.50460122e-03	-1.85907944e-03	1.77239108e-04	3.98168764e-03	-1.52765786e-02	1.79594171e-01	7.45205068e-02	1.05073664e-01
132             	1.84965266e-02	1.31537282e-02	5.34279844e-03	-3.14081984e-03	-1.47312867e-03	-1.66769116e-03	9.72812447e-05	3.90546487e-03	-1.52829679e-02	1.79601620e-01	7.45178421e-02	1.05083778e-01
133             	1.84836958e-02	1.30603595e-02	5.42333632e-03	-2.89739121e-03	-1.43490188e-03	-1.46248934e-03	1.37937306e-05	3.81851157e-03	-1.52884644e-02	1.79608317e-01	7.45156940e-02	1.05092623e-01
134             	1.84732614e-02	1.29580387e-02	5.51522272e-03	-2.63482471e-03	-1.38997914e-03	-1.24484557e-03	-7.25667851e-05	3.72140799e-03	-1.52930556e-02	1.79614255e-01	7.45140720e-02	1.05100183e-01
135             	1.84648835e-02	1.28473958e-02	5.61748763e-03	-2.35502074e-03	-1.33854478e-03	-1.01647596e-03	-1.61034410e-04	3.61495410e-03	-1.52968456e-02	1.79619526e-01	7.45129174e-02	1.05106609e-01
136             	1.84583261e-02	1.27293126e-02	5.72901358e-03	-2.06030582e-03	-1.28093429e-03	-7.79371531e-04	-2.50781378e-04	3.50014950e-03	-1.52999511e-02	1.79624233e-01	7.45121652e-02	1.05112067e-01
137             	1.84530516e-02	1.26049216e-02	5.84813005e-03	-1.75384494e-03	-1.21765018e-03	-5.36194768e-04	-3.40727704e-04	3.37839577e-03	-1.53025594e-02	1.79628529e-01	7.45117050e-02	1.05116824e-01
138             	1.84486623e-02	1.24757133e-02	5.97294900e-03	-1.43938553e-03	-1.14934048e-03	-2.90045048e-04	-4.29647718e-04	3.25138215e-03	-1.53048640e-02	1.79632558e-01	7.45114153e-02	1.05121143e-01
139             	1.84446425e-02	1.23432662e-02	6.10137635e-03	-1.12102337e-03	-1.07676454e-03	-4.42588238e-05	-5.16252860e-04	3.12094492e-03	-1.53070480e-02	1.79636468e-01	7.45111861e-02	1.05125282e-01
140             	1.84407684e-02	1.22092147e-02	6.23155373e-03	-8.02677326e-04	-1.00072118e-03	1.98043855e-04	-5.99382518e-04	2.98883047e-03	-1.53092366e-02	1.79640346e-01	7.45109364e-02	1.05129410e-01
141             	1.84369085e-02	1.20752283e-02	6.36168016e-03	-4.88254600e-04	-9.22048277e-04	4.33793677e-04	-6.77920977e-04	2.85677408e-03	-1.53114613e-02	1.79644223e-01	7.45106501e-02	1.05133573e-01
142             	1.84331190e-02	1.19431779e-02	6.48994114e-03	-1.81950518e-04	-8.41723898e-04	6.59773379e-04	-7.50748638e-04	2.72661837e-03	-1.53137341e-02	1.79648097e-01	7.45103147e-02	1.05137783e-01
143             	1.84292858e-02	1.18149343e-02	6.61435152e-03	1.11939596e-04	-7.60739505e-04	8.72679100e-04	-8.16709303e-04	2.60029138e-03	-1.53160771e-02	1.79651986e-01	7.45099160e-02	1.05142070e-01
144             	1.84253661e-02	1.16924745e-02	6.73289158e-03	3.88848147e-04	-6.80230306e-04	1.06907845e-03	-8.74654379e-04	2.47979145e-03	-1.53185332e-02	1.79655908e-01	7.45094207e-02	1.05146487e-01
145             	1.84213073e-02	1.15775824e-02	6.84372494e-03	6.44692986e-04	-6.01263545e-04	1.24595653e-03	-9.23610038e-04	2.36692873e-03	-1.53210834e-02	1.79659871e-01	7.45088521e-02	1.05151019e-01