# Force and moment coefficients
# dragDir       : (1.00000000e+00 0.00000000e+00 0.00000000e+00)
# sideDir       : (0.00000000e+00 0.00000000e+00 -1.00000000e+00)
# liftDir       : (0.00000000e+00 1.00000000e+00 0.00000000e+00)
# rollAxis      : (1.00000000e+00 0.00000000e+00 0.00000000e+00)
# pitchAxis     : (0.00000000e+00 0.00000000e+00 -1.00000000e+00)
# yawAxis       : (0.00000000e+00 1.00000000e+00 0.00000000e+00)
# magUInf       : 2.36600000e+02
# lRef          : 1.03300000e-01
# Aref          : 6.78000000e-03
# CofR          : (3.50000000e-02 0.00000000e+00 0.00000000e+00)
#
# Time          	Cd              	Cd(f)           	Cd(r)           	Cl              	Cl(f)           	Cl(r)           	CmPitch         	CmRoll          	CmYaw           	Cs              	Cs(f)           	Cs(r)           
1               	1.24555560e-01	6.52369829e-02	5.93185770e-02	-7.58423335e-05	-2.07654962e-03	2.00070729e-03	-2.03862845e-03	2.95920292e-03	7.35552265e-03	2.07235992e-01	1.10973519e-01	9.62624735e-02
2               	2.34463595e-01	1.20432285e-01	1.14031310e-01	-3.24720745e-05	-3.74906752e-03	3.71659545e-03	-3.73283149e-03	3.20048716e-03	1.66085389e-02	2.26019118e-01	1.29618098e-01	9.64010200e-02
3               	2.35607400e-01	1.21031103e-01	1.14576297e-01	1.86212355e-04	-3.48251595e-03	3.66872831e-03	-3.57562213e-03	3.22740301e-03	1.38694257e-02	2.32373584e-01	1.30056218e-01	1.02317366e-01
4               	1.66070570e-01	8.60272827e-02	8.00432871e-02	6.14844084e-04	-1.92058196e-03	2.53542604e-03	-2.22800400e-03	2.99199780e-03	4.49570534e-03	2.24941708e-01	1.16966559e-01	1.07975148e-01
5               	6.92160928e-02	3.72628865e-02	3.19532064e-02	1.03545310e-03	6.66905979e-05	9.68762499e-04	-4.51035950e-04	2.65484005e-03	-6.57411231e-03	2.09857989e-01	9.83548820e-02	1.11503107e-01
6               	-1.64175898e-02	-5.82237302e-03	-1.05952168e-02	1.26466434e-03	1.67976988e-03	-4.15105539e-04	1.04743771e-03	2.38642188e-03	-1.49973576e-02	1.93977714e-01	8.19914994e-02	1.11986215e-01
7               	-6.56579365e-02	-3.05111963e-02	-3.51467402e-02	1.10971584e-03	2.42967588e-03	-1.31996005e-03	1.87481796e-03	2.31777200e-03	-1.85108795e-02	1.82937278e-01	7.29577595e-02	1.09979518e-01
8               	-7.11447708e-02	-3.31095733e-02	-3.80351975e-02	5.53846224e-04	2.23230801e-03	-1.67846178e-03	1.95538490e-03	2.46281214e-03	-1.70651654e-02	1.79249667e-01	7.25596681e-02	1.06689999e-01
9               	-4.20132446e-02	-1.82977414e-02	-2.37155033e-02	-1.05269796e-04	1.41664502e-03	-1.52191482e-03	1.46927992e-03	2.70888096e-03	-1.23181744e-02	1.82353192e-01	7.88584215e-02	1.03494770e-01
10              	2.90857871e-03	4.40316378e-03	-1.49458507e-03	-6.80389928e-04	3.66900353e-04	-1.04729028e-03	7.07095317e-04	2.94887443e-03	-6.53305780e-03	1.88778634e-01	8.78562593e-02	1.00922375e-01
11              	4.47958767e-02	2.54985810e-02	1.92972957e-02	-1.00062051e-03	-5.29195912e-04	-4.71424595e-04	-2.88856586e-05	3.10064269e-03	-1.85803221e-03	1.95299490e-01	9.57917130e-02	9.95077775e-02
12              	7.04109310e-02	3.83572854e-02	3.20536456e-02	-1.06226395e-03	-1.02149636e-03	-4.07675934e-05	-4.90364382e-04	3.15181991e-03	3.09929024e-04	1.99944760e-01	1.00282309e-01	9.96624511e-02
13              	7.53929928e-02	4.08188650e-02	3.45741278e-02	-9.36924917e-04	-1.06253813e-03	1.25613213e-04	-5.94075672e-04	3.12236863e-03	-1.80170473e-04	2.01771008e-01	1.00705333e-01	1.01065674e-01
14              	6.37433035e-02	3.49118550e-02	2.88314484e-02	-7.09707818e-04	-7.45097707e-04	3.53898890e-05	-3.90243798e-04	3.04020332e-03	-2.48182638e-03	2.01020734e-01	9.80285405e-02	1.02992193e-01
15              	4.39973673e-02	2.49501254e-02	1.90472419e-02	-4.97724350e-04	-2.73173809e-04	-2.24550541e-04	-2.43116343e-05	2.95144177e-03	-5.36596697e-03	1.98843036e-01	9.40555509e-02	1.04787485e-01
16              	2.51526256e-02	1.54746986e-02	9.67792697e-03	-3.95457126e-04	1.60232418e-04	-5.55689544e-04	3.57960981e-04	2.89838580e-03	-7.73009701e-03	1.96561223e-01	9.05505147e-02	1.06010709e-01
17              	1.33810970e-02	9.59330390e-03	3.78779309e-03	-4.49024158e-04	4.14470232e-04	-8.63494390e-04	6.38982311e-04	2.90275540e-03	-8.89619906e-03	1.95054826e-01	8.86312140e-02	1.06423612e-01
18              	1.06786856e-02	8.28724240e-03	2.39144317e-03	-6.13306145e-04	4.38783279e-04	-1.05208942e-03	7.45436351e-04	2.94789961e-03	-8.77182354e-03	1.94592619e-01	8.85244860e-02	1.06068133e-01
19              	1.54215263e-02	1.07268333e-02	4.69469293e-03	-8.41346913e-04	2.73715576e-04	-1.11506249e-03	6.94389032e-04	3.01607020e-03	-7.72053683e-03	1.95002344e-01	8.97806349e-02	1.05221709e-01
20              	2.38651952e-02	1.50092139e-02	8.85598132e-03	-1.03303284e-03	4.37580529e-05	-1.07679089e-03	5.60274473e-04	3.07661627e-03	-6.32238967e-03	1.95831834e-01	9.15935272e-02	1.04238307e-01
21              	3.21105508e-02	1.91579673e-02	1.29525836e-02	-1.10091894e-03	-1.37418305e-04	-9.63500639e-04	4.13041167e-04	3.10269186e-03	-5.14321903e-03	1.96697019e-01	9.32052906e-02	1.03491729e-01
22              	3.73935368e-02	2.17952275e-02	1.55983093e-02	-1.06178944e-03	-2.21230315e-04	-8.40559127e-04	3.09664406e-04	3.09845908e-03	-4.54077820e-03	1.97333268e-01	9.41258559e-02	1.03207412e-01
23              	3.86955667e-02	2.24333428e-02	1.62622239e-02	-9.80305412e-04	-2.31806427e-04	-7.48498985e-04	2.58346279e-04	3.08555943e-03	-4.57842146e-03	1.97629848e-01	9.42365024e-02	1.03393345e-01
24              	3.67137637e-02	2.14204339e-02	1.52933298e-02	-8.73386232e-04	-1.93916160e-04	-6.79470071e-04	2.42776955e-04	3.06355202e-03	-5.07648854e-03	1.97622027e-01	9.37345249e-02	1.03887502e-01
25              	3.30732098e-02	1.95678430e-02	1.35053668e-02	-7.51254768e-04	-1.34217929e-04	-6.17036838e-04	2.41409454e-04	3.03123810e-03	-5.74729079e-03	1.97452271e-01	9.29788447e-02	1.04473426e-01
26              	2.94676049e-02	1.77228559e-02	1.17447489e-02	-6.06976558e-04	-6.62845266e-05	-5.40692031e-04	2.37203752e-04	2.98905351e-03	-6.32147089e-03	1.97268037e-01	9.23125474e-02	1.04955489e-01
27              	2.70926277e-02	1.64931780e-02	1.05994497e-02	-4.74583801e-04	-3.10947964e-05	-4.43489004e-04	2.06197104e-04	2.94686411e-03	-6.63322277e-03	1.97155501e-01	9.19445279e-02	1.05210973e-01
28              	2.63966441e-02	1.61040304e-02	1.02926137e-02	-3.59665164e-04	-2.28093317e-05	-3.36855833e-04	1.57023250e-04	2.90570839e-03	-6.64675462e-03	1.97144327e-01	9.19254090e-02	1.05218918e-01
29              	2.71121095e-02	1.64222289e-02	1.06898806e-02	-2.55677900e-04	-2.47427383e-05	-2.30935162e-04	1.03096212e-04	2.86617419e-03	-6.43898379e-03	1.97206754e-01	9.21643934e-02	1.05042361e-01
30              	2.85724899e-02	1.71136555e-02	1.14588344e-02	-1.44979899e-04	-1.58428652e-05	-1.29137034e-04	5.66470845e-05	2.82741055e-03	-6.14150858e-03	1.97301678e-01	9.25093304e-02	1.04792348e-01
31              	3.00545077e-02	1.78197027e-02	1.22348050e-02	-3.22730068e-05	5.36083627e-06	-3.76338431e-05	2.14973397e-05	2.79244884e-03	-5.88131915e-03	1.97387000e-01	9.28121811e-02	1.04574819e-01
32              	3.10360469e-02	1.82835179e-02	1.27525290e-02	7.79012860e-05	3.49249847e-05	4.29763013e-05	-4.02565827e-06	2.76549441e-03	-5.73862645e-03	1.97445660e-01	9.29842035e-02	1.04461456e-01
33              	3.13042926e-02	1.83942035e-02	1.29100891e-02	1.91643296e-04	6.82986603e-05	1.23344635e-04	-2.75229876e-05	2.74205721e-03	-5.73430822e-03	1.97480325e-01	9.30058541e-02	1.04474471e-01
34              	3.09520488e-02	1.81921470e-02	1.27599017e-02	3.14475256e-04	1.01110849e-04	2.13364407e-04	-5.61267790e-05	2.71612265e-03	-5.83707866e-03	1.97505491e-01	9.29156667e-02	1.04589824e-01
35              	3.02669645e-02	1.78152419e-02	1.24517225e-02	4.54061387e-04	1.32082971e-04	3.21978416e-04	-9.49477227e-05	2.68175969e-03	-5.98628465e-03	1.97533478e-01	9.27804542e-02	1.04753024e-01
36              	2.95749118e-02	1.74315634e-02	1.21433483e-02	5.88013376e-04	1.55766822e-04	4.32246554e-04	-1.38239866e-04	2.64410755e-03	-6.12046714e-03	1.97568559e-01	9.26638122e-02	1.04904746e-01
37              	2.91182103e-02	1.71620919e-02	1.19561184e-02	7.14675026e-04	1.80554898e-04	5.34120128e-04	-1.76782615e-04	2.60298676e-03	-6.19836391e-03	1.97604072e-01	9.26036722e-02	1.05000400e-01
38              	2.89911131e-02	1.70573246e-02	1.19337884e-02	8.29301715e-04	2.11184047e-04	6.18117668e-04	-2.03466811e-04	2.56176810e-03	-6.20782916e-03	1.97628744e-01	9.26065429e-02	1.05022201e-01
39              	2.91490391e-02	1.71026883e-02	1.20463509e-02	9.17199795e-04	2.44609040e-04	6.72590754e-04	-2.13990857e-04	2.52816868e-03	-6.16339551e-03	1.97635184e-01	9.26541966e-02	1.04980988e-01
40              	2.94612014e-02	1.72431059e-02	1.22180956e-02	9.60503756e-04	2.72501810e-04	6.88001946e-04	-2.07750068e-04	2.51250515e-03	-6.09449773e-03	1.97622667e-01	9.27168356e-02	1.04905831e-01
41              	2.97777581e-02	1.74033736e-02	1.23743844e-02	9.60084640e-04	2.88338787e-04	6.71745853e-04	-1.91703533e-04	2.51449460e-03	-6.03158604e-03	1.97597705e-01	9.27672663e-02	1.04830438e-01
42              	2.99883272e-02	1.75210288e-02	1.24672984e-02	9.34733656e-04	2.94738144e-04	6.39995512e-04	-1.72628684e-04	2.52686520e-03	-5.99522314e-03	1.97574601e-01	9.27920772e-02	1.04782523e-01
43              	3.00481167e-02	1.75660224e-02	1.24820942e-02	9.02324839e-04	2.96100081e-04	6.06224759e-04	-1.55062339e-04	2.54196410e-03	-5.99188630e-03	1.97564780e-01	9.27905039e-02	1.04774277e-01
44              	2.99759903e-02	1.75416061e-02	1.24343842e-02	8.75683360e-04	2.96720879e-04	5.78962481e-04	-1.41120801e-04	2.55361093e-03	-6.01542607e-03	1.97573856e-01	9.27715018e-02	1.04802354e-01
45              	2.98313637e-02	1.74731523e-02	1.23582114e-02	8.63318408e-04	3.01842064e-04	5.61476345e-04	-1.29817141e-04	2.55747048e-03	-6.05208915e-03	1.97600145e-01	9.27479832e-02	1.04852162e-01
46              	2.96836509e-02	1.73982661e-02	1.22853848e-02	8.57405363e-04	3.11052426e-04	5.46352937e-04	-1.17650256e-04	2.55644061e-03	-6.08713781e-03	1.97637233e-01	9.27314787e-02	1.04905754e-01
47              	2.95840242e-02	1.73468892e-02	1.22371349e-02	8.48225614e-04	3.23571327e-04	5.24654287e-04	-1.00541480e-04	2.55487714e-03	-6.11022152e-03	1.97672961e-01	9.27262588e-02	1.04946702e-01
48              	2.95537578e-02	1.73357760e-02	1.22179817e-02	8.22773955e-04	3.34424294e-04	4.88349661e-04	-7.69626837e-05	2.55889714e-03	-6.11762431e-03	1.97698004e-01	9.27313776e-02	1.04966626e-01
49              	2.95839496e-02	1.73654950e-02	1.22184546e-02	7.70599268e-04	3.37199168e-04	4.33400100e-04	-4.81004658e-05	2.57352023e-03	-6.11211155e-03	1.97707766e-01	9.27417716e-02	1.04965995e-01
50              	2.96471334e-02	1.74215204e-02	1.22256130e-02	6.94011223e-04	3.28577657e-04	3.65433565e-04	-1.84279539e-05	2.59795370e-03	-6.10014498e-03	1.97702962e-01	9.27513363e-02	1.04951626e-01
51              	2.97120477e-02	1.74828542e-02	1.22291935e-02	6.06288982e-04	3.10150071e-04	2.96138911e-04	7.00558003e-06	2.62683032e-03	-6.08871200e-03	1.97689338e-01	9.27559568e-02	1.04933381e-01
52              	2.97553380e-02	1.75308421e-02	1.22244959e-02	5.25182534e-04	2.87711110e-04	2.37471424e-04	2.51198432e-05	2.65317311e-03	-6.08279565e-03	1.97674717e-01	9.27545627e-02	1.04920154e-01
53              	2.97676374e-02	1.75560922e-02	1.22115452e-02	4.63185402e-04	2.67084863e-04	1.96100539e-04	3.54921622e-05	2.67227349e-03	-6.08437499e-03	1.97666357e-01	9.27488037e-02	1.04917554e-01
54              	2.97515881e-02	1.75582650e-02	1.21933230e-02	4.25473398e-04	2.52785829e-04	1.72687568e-04	4.00491305e-05	2.68247101e-03	-6.09264664e-03	1.97668285e-01	9.27414961e-02	1.04926789e-01
55              	2.97201430e-02	1.75450705e-02	1.21750725e-02	4.10135681e-04	2.46511781e-04	1.63623900e-04	4.14439408e-05	2.68499896e-03	-6.10448958e-03	1.97680551e-01	9.27357857e-02	1.04944765e-01
56              	2.96869530e-02	1.75271984e-02	1.21597546e-02	4.08357082e-04	2.46711763e-04	1.61645319e-04	4.25332217e-05	2.68372192e-03	-6.11671394e-03	1.97699882e-01	9.27332268e-02	1.04966655e-01
57              	2.96621944e-02	1.75141282e-02	1.21480662e-02	4.09137030e-04	2.49886924e-04	1.59250106e-04	4.53184090e-05	2.68303100e-03	-6.12691596e-03	1.97721184e-01	9.27336758e-02	1.04987508e-01
58              	2.96492035e-02	1.75100959e-02	1.21391076e-02	4.04578472e-04	2.52120171e-04	1.52458301e-04	4.98309347e-05	2.68549418e-03	-6.13429684e-03	1.97739727e-01	9.27355664e-02	1.05004160e-01
59              	2.96463708e-02	1.75139646e-02	1.21324062e-02	3.93447422e-04	2.51150697e-04	1.42296724e-04	5.44269866e-05	2.69077919e-03	-6.13915904e-03	1.97752413e-01	9.27370473e-02	1.05015365e-01
60              	2.96496525e-02	1.75213686e-02	1.21282839e-02	3.80246525e-04	2.46886247e-04	1.33360278e-04	5.67629848e-05	2.69654234e-03	-6.14247698e-03	1.97758023e-01	9.27365346e-02	1.05021489e-01
61              	2.96534374e-02	1.75268413e-02	1.21265961e-02	3.71629278e-04	2.41048999e-04	1.30580279e-04	5.52343601e-05	2.70012258e-03	-6.14568990e-03	1.97757956e-01	9.27332881e-02	1.05024668e-01
62              	2.96537152e-02	1.75266561e-02	1.21270591e-02	3.72776815e-04	2.35897410e-04	1.36879405e-04	4.95090022e-05	2.69979850e-03	-6.14989042e-03	1.97755121e-01	9.27276702e-02	1.05027451e-01
63              	2.96487720e-02	1.75195433e-02	1.21292287e-02	3.85974001e-04	2.33535493e-04	1.52438507e-04	4.05484931e-05	2.69515730e-03	-6.15561701e-03	1.97752978e-01	9.27208720e-02	1.05032106e-01
64              	2.96380048e-02	1.75062069e-02	1.21317979e-02	4.09528787e-04	2.34809657e-04	1.74719130e-04	3.00452633e-05	2.68720449e-03	-6.16305900e-03	1.97754502e-01	9.27141919e-02	1.05040310e-01
65              	2.96237595e-02	1.74895441e-02	1.21342154e-02	4.39631796e-04	2.39538512e-04	2.00093284e-04	1.97226139e-05	2.67766434e-03	-6.17163392e-03	1.97760855e-01	9.27087937e-02	1.05052062e-01
66              	2.96101565e-02	1.74733413e-02	1.21368152e-02	4.71697976e-04	2.46636948e-04	2.25061028e-04	1.07879597e-05	2.66826305e-03	-6.18029221e-03	1.97771251e-01	9.27053334e-02	1.05065918e-01
67              	2.95986643e-02	1.74596638e-02	1.21390005e-02	5.01310419e-04	2.54366518e-04	2.46943901e-04	3.71130883e-06	2.66033168e-03	-6.18859617e-03	1.97783853e-01	9.27033303e-02	1.05080523e-01
68              	2.95880455e-02	1.74481377e-02	1.21399078e-02	5.26133371e-04	2.61294560e-04	2.64838811e-04	-1.77212514e-06	2.65411497e-03	-6.19669911e-03	1.97796687e-01	9.27016444e-02	1.05095043e-01
69              	2.95778999e-02	1.74380416e-02	1.21398584e-02	5.46146432e-04	2.66919373e-04	2.79227059e-04	-6.15384337e-06	2.64909160e-03	-6.20458859e-03	1.97807881e-01	9.26993518e-02	1.05108529e-01
70              	2.95692146e-02	1.74290654e-02	1.21401491e-02	5.62776706e-04	2.71539699e-04	2.91237007e-04	-9.84865415e-06	2.64445814e-03	-6.21202259e-03	1.97815836e-01	9.26958956e-02	1.05119941e-01
71              	2.95609232e-02	1.74202778e-02	1.21406453e-02	5.77264163e-04	2.75698430e-04	3.01565732e-04	-1.29336510e-05	2.63981623e-03	-6.21932603e-03	1.97820490e-01	9.26909192e-02	1.05129571e-01
72              	2.95523241e-02	1.74115131e-02	1.21408110e-02	5.89788335e-04	2.79697776e-04	3.10090559e-04	-1.51963913e-05	2.63535103e-03	-6.22677510e-03	1.97822893e-01	9.26846716e-02	1.05138222e-01
73              	2.95427935e-02	1.74028710e-02	1.21399225e-02	6.00162051e-04	2.83853383e-04	3.16308668e-04	-1.62276427e-05	2.63147423e-03	-6.23458923e-03	1.97824679e-01	9.26777503e-02	1.05146929e-01
74              	2.95322422e-02	1.73948861e-02	1.21373561e-02	6.07495321e-04	2.87977827e-04	3.19517494e-04	-1.57698333e-05	2.62876498e-03	-6.24283820e-03	1.97827449e-01	9.26708861e-02	1.05156562e-01
75              	2.95188017e-02	1.73870898e-02	1.21317119e-02	6.10767698e-04	2.91611168e-04	3.19156529e-04	-1.37726804e-05	2.62768898e-03	-6.25197476e-03	1.97832689e-01	9.26643698e-02	1.05168319e-01
76              	2.95037102e-02	1.73800778e-02	1.21236324e-02	6.09799568e-04	2.94258729e-04	3.15540838e-04	-1.06410544e-05	2.62822274e-03	-6.26170216e-03	1.97840462e-01	9.26585286e-02	1.05181933e-01
77              	2.94881771e-02	1.73739880e-02	1.21141891e-02	6.05496516e-04	2.95824068e-04	3.09672448e-04	-6.92419012e-06	2.62989941e-03	-6.27169831e-03	1.97849912e-01	9.26532578e-02	1.05196654e-01
78              	2.94733440e-02	1.73687856e-02	1.21045584e-02	5.99111986e-04	2.96397137e-04	3.02714850e-04	-3.15885659e-06	2.63211358e-03	-6.28165090e-03	1.97859755e-01	9.26482267e-02	1.05211528e-01
79              	2.94617976e-02	1.73651072e-02	1.20966904e-02	5.92317750e-04	2.96369853e-04	2.95947898e-04	2.10977337e-07	2.63420840e-03	-6.29089771e-03	1.97868217e-01	9.26432107e-02	1.05225006e-01
80              	2.94527876e-02	1.73624877e-02	1.20902999e-02	5.85391331e-04	2.95943394e-04	2.89447936e-04	3.24772915e-06	2.63609390e-03	-6.29959454e-03	1.97874635e-01	9.26377229e-02	1.05236912e-01
81              	2.94448217e-02	1.73603879e-02	1.20844338e-02	5.78062656e-04	2.95284534e-04	2.82778122e-04	6.25320571e-06	2.63797706e-03	-6.30807723e-03	1.97879174e-01	9.26315096e-02	1.05247664e-01
82              	2.94364718e-02	1.73584628e-02	1.20780090e-02	5.69746658e-04	2.94438588e-04	2.75308070e-04	9.56525878e-06	2.64022690e-03	-6.31667229e-03	1.97882521e-01	9.26245884e-02	1.05257933e-01
83              	2.94266996e-02	1.73564890e-02	1.20702106e-02	5.59961255e-04	2.93375514e-04	2.66585742e-04	1.33948860e-05	2.64313920e-03	-6.32563900e-03	1.97885640e-01	9.26171810e-02	1.05268459e-01
84              	2.94130360e-02	1.73534923e-02	1.20595436e-02	5.48059145e-04	2.91877784e-04	2.56181360e-04	1.78482120e-05	2.64697436e-03	-6.33560908e-03	1.97890006e-01	9.26093939e-02	1.05280612e-01
85              	2.93967671e-02	1.73497716e-02	1.20469955e-02	5.34971452e-04	2.89989928e-04	2.44981523e-04	2.25042025e-05	2.65138806e-03	-6.34628603e-03	1.97895843e-01	9.26016353e-02	1.05294207e-01
86              	2.93798466e-02	1.73457734e-02	1.20340732e-02	5.22018469e-04	2.87798949e-04	2.34219519e-04	2.67897149e-05	2.65585010e-03	-6.35722355e-03	1.97902758e-01	9.25941555e-02	1.05308603e-01
87              	2.93639210e-02	1.73418193e-02	1.20221017e-02	5.10465190e-04	2.85427950e-04	2.25037240e-04	3.01953550e-05	2.65985879e-03	-6.36804854e-03	1.97910096e-01	9.25869996e-02	1.05323097e-01
88              	2.93500132e-02	1.73380381e-02	1.20119752e-02	5.01279899e-04	2.83062635e-04	2.18217264e-04	3.24226854e-05	2.66303146e-03	-6.37850796e-03	1.97917162e-01	9.25800732e-02	1.05337089e-01
89              	2.93381610e-02	1.73343473e-02	1.20038137e-02	4.94791421e-04	2.80859886e-04	2.13931535e-04	3.34641755e-05	2.66526680e-03	-6.38857742e-03	1.97923518e-01	9.25731814e-02	1.05350336e-01
90              	2.93278519e-02	1.73305936e-02	1.19972583e-02	4.90837973e-04	2.78972990e-04	2.11864983e-04	3.35540033e-05	2.66666767e-03	-6.39834533e-03	1.97928993e-01	9.25661511e-02	1.05362842e-01
91              	2.93181861e-02	1.73265879e-02	1.19915982e-02	4.88838044e-04	2.77486765e-04	2.11351279e-04	3.30677429e-05	2.66749486e-03	-6.40799930e-03	1.97933741e-01	9.25588710e-02	1.05374870e-01
92              	2.93084689e-02	1.73222659e-02	1.19862029e-02	4.88111143e-04	2.76420062e-04	2.11691081e-04	3.23644902e-05	2.66803150e-03	-6.41768035e-03	1.97938061e-01	9.25513500e-02	1.05386711e-01
93              	2.92982313e-02	1.73176133e-02	1.19806180e-02	4.88060417e-04	2.75718561e-04	2.12341856e-04	3.16883526e-05	2.66849764e-03	-6.42749825e-03	1.97942321e-01	9.25436624e-02	1.05398659e-01
94              	2.92874781e-02	1.73127145e-02	1.19747635e-02	4.88351620e-04	2.75295251e-04	2.13056368e-04	3.11194416e-05	2.66897551e-03	-6.43745205e-03	1.97946809e-01	9.25359524e-02	1.05410857e-01
95              	2.92763956e-02	1.73076076e-02	1.19687881e-02	4.88985789e-04	2.75080471e-04	2.13905318e-04	3.05875763e-05	2.66940973e-03	-6.44750424e-03	1.97951650e-01	9.25283209e-02	1.05423329e-01
96              	2.92654211e-02	1.73023999e-02	1.19630212e-02	4.90064899e-04	2.74964923e-04	2.15099975e-04	2.99324740e-05	2.66968938e-03	-6.45757288e-03	1.97956792e-01	9.25208230e-02	1.05435969e-01
97              	2.92548520e-02	1.72970999e-02	1.19577521e-02	4.91851166e-04	2.74936581e-04	2.16914585e-04	2.90109983e-05	2.66967388e-03	-6.46759432e-03	1.97962111e-01	9.25134612e-02	1.05448650e-01
98              	2.92449311e-02	1.72917559e-02	1.19531751e-02	4.94495108e-04	2.74997754e-04	2.19497354e-04	2.77501998e-05	2.66929041e-03	-6.47751095e-03	1.97967436e-01	9.25062069e-02	1.05461229e-01
99              	2.92356225e-02	1.72863188e-02	1.19493037e-02	4.98100353e-04	2.75264112e-04	2.22836241e-04	2.62139353e-05	2.66850758e-03	-6.48728781e-03	1.97972564e-01	9.24989940e-02	1.05473570e-01
100             	2.92269237e-02	1.72809190e-02	1.19460047e-02	5.02343096e-04	2.75711741e-04	2.26631356e-04	2.45401925e-05	2.66745717e-03	-6.49693154e-03	1.97977453e-01	9.24917952e-02	1.05485658e-01
101             	2.92186408e-02	1.72756095e-02	1.19430313e-02	5.06880110e-04	2.76385421e-04	2.30494690e-04	2.29453654e-05	2.66628912e-03	-6.50644723e-03	1.97982068e-01	9.24845866e-02	1.05497481e-01
102             	2.92107096e-02	1.72705362e-02	1.19401735e-02	5.11229855e-04	2.77216176e-04	2.34013679e-04	2.16012487e-05	2.66518135e-03	-6.51586719e-03	1.97986485e-01	9.24773754e-02	1.05509110e-01
103             	2.92030670e-02	1.72658183e-02	1.19372487e-02	5.14959762e-04	2.78111958e-04	2.36847804e-04	2.06320772e-05	2.66428480e-03	-6.52518827e-03	1.97990750e-01	9.24701867e-02	1.05520563e-01
104             	2.91956772e-02	1.72615138e-02	1.19341634e-02	5.17806996e-04	2.78969428e-04	2.38837568e-04	2.00659300e-05	2.66367520e-03	-6.53443353e-03	1.97994949e-01	9.24630408e-02	1.05531908e-01
105             	2.91886024e-02	1.72576638e-02	1.19309387e-02	5.19678352e-04	2.79688307e-04	2.39990045e-04	1.98491311e-05	2.66336253e-03	-6.54357535e-03	1.97999112e-01	9.24559808e-02	1.05543132e-01
106             	2.91818017e-02	1.72541614e-02	1.19276403e-02	5.20761793e-04	2.80294500e-04	2.40467293e-04	1.99136033e-05	2.66326058e-03	-6.55262557e-03	1.98003220e-01	9.24489844e-02	1.05554236e-01
107             	2.91753734e-02	1.72510138e-02	1.19243596e-02	5.21156042e-04	2.80731088e-04	2.40424953e-04	2.01530674e-05	2.66332714e-03	-6.56154900e-03	1.98007259e-01	9.24420805e-02	1.05565178e-01
108             	2.91693079e-02	1.72481655e-02	1.19211424e-02	5.21006637e-04	2.80998693e-04	2.40007945e-04	2.04953741e-05	2.66351158e-03	-6.57037738e-03	1.98011230e-01	9.24352375e-02	1.05575992e-01
109             	2.91636071e-02	1.72455780e-02	1.19180290e-02	5.20451566e-04	2.81147252e-04	2.39304314e-04	2.09214688e-05	2.66377450e-03	-6.57907495e-03	1.98015072e-01	9.24284610e-02	1.05586611e-01
110             	2.91582599e-02	1.72432603e-02	1.19149996e-02	5.19491168e-04	2.81190045e-04	2.38301123e-04	2.14444611e-05	2.66413038e-03	-6.58764984e-03	1.98018783e-01	9.24217417e-02	1.05597041e-01
111             	2.91532655e-02	1.72412392e-02	1.19120263e-02	5.18086862e-04	2.81148686e-04	2.36938175e-04	2.21052554e-05	2.66460645e-03	-6.59607057e-03	1.98022364e-01	9.24151117e-02	1.05607253e-01
112             	2.91486633e-02	1.72395657e-02	1.19090976e-02	5.16173976e-04	2.80999519e-04	2.35174457e-04	2.29125307e-05	2.66523408e-03	-6.60435282e-03	1.98025891e-01	9.24085925e-02	1.05617298e-01
113             	2.91444602e-02	1.72382678e-02	1.19061924e-02	5.13716656e-04	2.80726502e-04	2.32990154e-04	2.38681739e-05	2.66603772e-03	-6.61248764e-03	1.98029385e-01	9.24022048e-02	1.05627180e-01
114             	2.91406558e-02	1.72373369e-02	1.19033189e-02	5.10765958e-04	2.80323824e-04	2.30442135e-04	2.49408446e-05	2.66700899e-03	-6.62049096e-03	1.98032860e-01	9.23959393e-02	1.05636921e-01
115             	2.91372099e-02	1.72367187e-02	1.19004912e-02	5.07432237e-04	2.79791951e-04	2.27640286e-04	2.60758327e-05	2.66811372e-03	-6.62835544e-03	1.98036311e-01	9.23897998e-02	1.05646511e-01
116             	2.91340896e-02	1.72363324e-02	1.18977572e-02	5.03892413e-04	2.79157585e-04	2.24734828e-04	2.72113783e-05	2.66928764e-03	-6.63609532e-03	1.98039735e-01	9.23837721e-02	1.05655963e-01
117             	2.91312487e-02	1.72361188e-02	1.18951299e-02	5.00266194e-04	2.78425612e-04	2.21840583e-04	2.82925145e-05	2.67049442e-03	-6.64370456e-03	1.98043132e-01	9.23778616e-02	1.05665271e-01
118             	2.91286711e-02	1.72360127e-02	1.18926584e-02	4.96735878e-04	2.77628799e-04	2.19107079e-04	2.92608600e-05	2.67167712e-03	-6.65118484e-03	1.98046489e-01	9.23720597e-02	1.05674429e-01
119             	2.91263340e-02	1.72359893e-02	1.18903446e-02	4.93346615e-04	2.76784234e-04	2.16562381e-04	3.01109270e-05	2.67282234e-03	-6.65851617e-03	1.98049818e-01	9.23663928e-02	1.05683425e-01
120             	2.91242668e-02	1.72360514e-02	1.18882155e-02	4.90145545e-04	2.75925248e-04	2.14220297e-04	3.08524750e-05	2.67391793e-03	-6.66569144e-03	1.98053112e-01	9.23608644e-02	1.05692247e-01
121             	2.91224906e-02	1.72362063e-02	1.18862843e-02	4.87140287e-04	2.75072934e-04	2.12067353e-04	3.15027907e-05	2.67496104e-03	-6.67269785e-03	1.98056386e-01	9.23554953e-02	1.05700891e-01
122             	2.91210467e-02	1.72364731e-02	1.18845736e-02	4.84339770e-04	2.74247467e-04	2.10092303e-04	3.20775819e-05	2.67594977e-03	-6.67954305e-03	1.98059643e-01	9.23502784e-02	1.05709365e-01
123             	2.91199020e-02	1.72368383e-02	1.18830638e-02	4.81738062e-04	2.73453420e-04	2.08284643e-04	3.25843885e-05	2.67688725e-03	-6.68622976e-03	1.98062890e-01	9.23452150e-02	1.05717675e-01
124             	2.91190665e-02	1.72373016e-02	1.18817649e-02	4.79343353e-04	2.72693658e-04	2.06649696e-04	3.30219811e-05	2.67776834e-03	-6.69276902e-03	1.98066119e-01	9.23402904e-02	1.05725828e-01
125             	2.91184838e-02	1.72378323e-02	1.18806515e-02	4.77155771e-04	2.71963183e-04	2.05192588e-04	3.33852973e-05	2.67859042e-03	-6.69916298e-03	1.98069324e-01	9.23354988e-02	1.05733825e-01
126             	2.91181889e-02	1.72384334e-02	1.18797556e-02	4.75206366e-04	2.71262220e-04	2.03944146e-04	3.36590374e-05	2.67933890e-03	-6.70541516e-03	1.98072497e-01	9.23308331e-02	1.05741663e-01
127             	2.91181036e-02	1.72390561e-02	1.18790475e-02	4.73521365e-04	2.70608062e-04	2.02913303e-04	3.38473797e-05	2.68000431e-03	-6.71152487e-03	1.98075625e-01	9.23262876e-02	1.05749337e-01
128             	2.91182583e-02	1.72397101e-02	1.18785483e-02	4.72109947e-04	2.70015329e-04	2.02094618e-04	3.39603551e-05	2.68058090e-03	-6.71748610e-03	1.98078693e-01	9.23218602e-02	1.05756832e-01
129             	2.91186100e-02	1.72403995e-02	1.18782105e-02	4.70909576e-04	2.69466695e-04	2.01442881e-04	3.40119068e-05	2.68109449e-03	-6.72330850e-03	1.98081724e-01	9.23175534e-02	1.05764170e-01
130             	2.91192131e-02	1.72411577e-02	1.18780554e-02	4.69893483e-04	2.68963156e-04	2.00930327e-04	3.40164149e-05	2.68155115e-03	-6.72898446e-03	1.98084717e-01	9.23133740e-02	1.05771343e-01
131             	2.91199992e-02	1.72419642e-02	1.18780350e-02	4.69009086e-04	2.68500022e-04	2.00509064e-04	3.39954788e-05	2.68196461e-03	-6.73452359e-03	1.98087692e-01	9.23093223e-02	1.05778370e-01
132             	2.91210293e-02	1.72428604e-02	1.18781689e-02	4.68212963e-04	2.68072058e-04	2.00140905e-04	3.39655768e-05	2.68234574e-03	-6.73991794e-03	1.98090645e-01	9.23054045e-02	1.05785240e-01
133             	2.91222115e-02	1.72438059e-02	1.18784056e-02	4.67477471e-04	2.67683639e-04	1.99793833e-04	3.39449031e-05	2.68270017e-03	-6.74517841e-03	1.98093579e-01	9.23016110e-02	1.05791968e-01
134             	2.91235997e-02	1.72448354e-02	1.18787642e-02	4.66770696e-04	2.67326852e-04	1.99443844e-04	3.39415037e-05	2.68303561e-03	-6.75029653e-03	1.98096469e-01	9.22979380e-02	1.05798531e-01
135             	2.91251229e-02	1.72459266e-02	1.18791963e-02	4.66048019e-04	2.66989784e-04	1.99058235e-04	3.39657747e-05	2.68336515e-03	-6.75528512e-03	1.98099327e-01	9.22943784e-02	1.05804949e-01
136             	2.91268409e-02	1.72471137e-02	1.18797273e-02	4.65292644e-04	2.66664135e-04	1.98628508e-04	3.40178134e-05	2.68369321e-03	-6.76013532e-03	1.98102123e-01	9.22909264e-02	1.05811197e-01
137             	2.91286657e-02	1.72483594e-02	1.18803063e-02	4.64485648e-04	2.66345085e-04	1.98140562e-04	3.41022614e-05	2.68402658e-03	-6.76487187e-03	1.98104839e-01	9.22875476e-02	1.05817291e-01
138             	2.91306727e-02	1.72497109e-02	1.18809618e-02	4.63599975e-04	2.66015545e-04	1.97584429e-04	3.42155580e-05	2.68437457e-03	-6.76949530e-03	1.98107458e-01	9.22842337e-02	1.05823224e-01
139             	2.91327714e-02	1.72511232e-02	1.18816482e-02	4.62629783e-04	2.65678535e-04	1.96951249e-04	3.43636428e-05	2.68473749e-03	-6.77402513e-03	1.98109988e-01	9.22809691e-02	1.05829019e-01
140             	2.91350148e-02	1.72526231e-02	1.18823917e-02	4.61578079e-04	2.65337419e-04	1.96240660e-04	3.45483799e-05	2.68511570e-03	-6.77844371e-03	1.98112415e-01	9.22777637e-02	1.05834651e-01
141             	2.91373296e-02	1.72541833e-02	1.18831463e-02	4.60417955e-04	2.64987086e-04	1.95430869e-04	3.47781085e-05	2.68551847e-03	-6.78276684e-03	1.98114754e-01	9.22746102e-02	1.05840144e-01
142             	2.91397940e-02	1.72558494e-02	1.18839446e-02	4.59134723e-04	2.64617870e-04	1.94516852e-04	3.50505089e-05	2.68595243e-03	-6.78698239e-03	1.98117006e-01	9.22715205e-02	1.05845485e-01
143             	2.91423309e-02	1.72575848e-02	1.18847461e-02	4.57726017e-04	2.64228747e-04	1.93497270e-04	3.53657387e-05	2.68641931e-03	-6.79110510e-03	1.98119195e-01	9.22684925e-02	1.05850703e-01
144             	2.91450046e-02	1.72594151e-02	1.18855895e-02	4.56223934e-04	2.63825399e-04	1.92398535e-04	3.57134323e-05	2.68691282e-03	-6.79511979e-03	1.98121307e-01	9.22655336e-02	1.05855773e-01
145             	2.91477465e-02	1.72612980e-02	1.18864485e-02	4.54633171e-04	2.63403093e-04	1.91230078e-04	3.60865074e-05	2.68742478e-03	-6.79904545e-03	1.98123363e-01	9.22626362e-02	1.05860727e-01
146             	2.91506076e-02	1.72632543e-02	1.18873533e-02	4.52981513e-04	2.62966752e-04	1.90014762e-04	3.64759949e-05	2.68795050e-03	-6.80286661e-03	1.98125348e-01	9.22598075e-02	1.05865541e-01